 Entering Gaussian System, Link 0=/home/proyectos/fulerenos/M3C-v2.0/M3C-deps_CCC/g09-AM64L-G09RevC.01/g09
 Initial command:
 /home/proyectos/fulerenos/M3C-v2.0/M3C-deps_CCC/g09-AM64L-G09RevC.01/l1.exe "/scratch/naguirre/gaussian/Gau-26166.inp" -scrdir="/scratch/naguirre/gaussian/"
 Entering Link 1 = /home/proyectos/fulerenos/M3C-v2.0/M3C-deps_CCC/g09-AM64L-G09RevC.01/l1.exe PID=     26174.
  
 Copyright (c) 1988,1990,1992,1993,1995,1998,2003,2009,2015,
            Gaussian, Inc.  All Rights Reserved.
  
 This is part of the Gaussian(R) 09 program.  It is based on
 the Gaussian(R) 03 system (copyright 2003, Gaussian, Inc.),
 the Gaussian(R) 98 system (copyright 1998, Gaussian, Inc.),
 the Gaussian(R) 94 system (copyright 1995, Gaussian, Inc.),
 the Gaussian 92(TM) system (copyright 1992, Gaussian, Inc.),
 the Gaussian 90(TM) system (copyright 1990, Gaussian, Inc.),
 the Gaussian 88(TM) system (copyright 1988, Gaussian, Inc.),
 the Gaussian 86(TM) system (copyright 1986, Carnegie Mellon
 University), and the Gaussian 82(TM) system (copyright 1983,
 Carnegie Mellon University). Gaussian is a federally registered
 trademark of Gaussian, Inc.
  
 This software contains proprietary and confidential information,
 including trade secrets, belonging to Gaussian, Inc.
  
 This software is provided under written license and may be
 used, copied, transmitted, or stored only in accord with that
 written license.
  
 The following legend is applicable only to US Government
 contracts under FAR:
  
                    RESTRICTED RIGHTS LEGEND
  
 Use, reproduction and disclosure by the US Government is
 subject to restrictions as set forth in subparagraphs (a)
 and (c) of the Commercial Computer Software - Restricted
 Rights clause in FAR 52.227-19.
  
 Gaussian, Inc.
 340 Quinnipiac St., Bldg. 40, Wallingford CT 06492
  
  
 ---------------------------------------------------------------
 Warning -- This program may not be used in any manner that
 competes with the business of Gaussian, Inc. or will provide
 assistance to any competitor of Gaussian, Inc.  The licensee
 of this program is prohibited from giving any competitor of
 Gaussian, Inc. access to this program.  By using this program,
 the user acknowledges that Gaussian, Inc. is engaged in the
 business of creating and licensing software in the field of
 computational chemistry and represents and warrants to the
 licensee that it is not a competitor of Gaussian, Inc. and that
 it will not use this program in any manner prohibited above.
 ---------------------------------------------------------------
  

 Cite this work as:
 Gaussian 09, Revision E.01,
 M. J. Frisch, G. W. Trucks, H. B. Schlegel, G. E. Scuseria, 
 M. A. Robb, J. R. Cheeseman, G. Scalmani, V. Barone, B. Mennucci, 
 G. A. Petersson, H. Nakatsuji, M. Caricato, X. Li, H. P. Hratchian, 
 A. F. Izmaylov, J. Bloino, G. Zheng, J. L. Sonnenberg, M. Hada, 
 M. Ehara, K. Toyota, R. Fukuda, J. Hasegawa, M. Ishida, T. Nakajima, 
 Y. Honda, O. Kitao, H. Nakai, T. Vreven, J. A. Montgomery, Jr., 
 J. E. Peralta, F. Ogliaro, M. Bearpark, J. J. Heyd, E. Brothers, 
 K. N. Kudin, V. N. Staroverov, T. Keith, R. Kobayashi, J. Normand, 
 K. Raghavachari, A. Rendell, J. C. Burant, S. S. Iyengar, J. Tomasi, 
 M. Cossi, N. Rega, J. M. Millam, M. Klene, J. E. Knox, J. B. Cross, 
 V. Bakken, C. Adamo, J. Jaramillo, R. Gomperts, R. E. Stratmann, 
 O. Yazyev, A. J. Austin, R. Cammi, C. Pomelli, J. W. Ochterski, 
 R. L. Martin, K. Morokuma, V. G. Zakrzewski, G. A. Voth, 
 P. Salvador, J. J. Dannenberg, S. Dapprich, A. D. Daniels, 
 O. Farkas, J. B. Foresman, J. V. Ortiz, J. Cioslowski, 
 and D. J. Fox, Gaussian, Inc., Wallingford CT, 2013.
 
 ******************************************
 Gaussian 09:  EM64L-G09RevE.01 30-Nov-2015
                 3-Aug-2016 
 ******************************************
 %NProcShared=4
 Will use up to    4 processors via shared memory.
 ------------------------------
 #p b3lyp/6-311++G(3df,2p) freq
 ------------------------------
 1/10=4,30=1,38=1/1,3;
 2/12=2,17=6,18=5,40=1/2;
 3/5=4,6=6,7=1216,11=2,16=1,25=1,30=1,71=2,74=-5,140=1/1,2,3;
 4//1;
 5/5=2,38=5,98=1/2;
 8/6=4,10=90,11=11/1;
 11/6=1,8=1,9=11,15=111,16=1/1,2,10;
 10/6=1/2;
 6/7=2,8=2,9=2,10=2,18=1,28=1/1;
 7/8=1,10=1,25=1/1,2,3,16;
 1/10=4,30=1/3;
 99//99;
 Leave Link    1 at Wed Aug  3 23:05:18 2016, MaxMem=           0 cpu:         0.3
 (Enter /home/proyectos/fulerenos/M3C-v2.0/M3C-deps_CCC/g09-AM64L-G09RevC.01/l101.exe)
 ---------
 b3lyp opt
 ---------
 Symbolic Z-matrix:
 Charge =  1 Multiplicity = 2
 S                    -1.18496   0.12455   0.61795 
 S                     0.71775  -0.71422   0.11604 
 C                     0.61558  -1.82401  -0.93443 
 H                     0.36056  -2.57094  -1.66891 
 H                    -0.56751   0.9569    1.48558 
 
 NAtoms=      5 NQM=        5 NQMF=       0 NMMI=      0 NMMIF=      0
                NMic=       0 NMicF=      0.
                    Isotopes and Nuclear Properties:
 (Nuclear quadrupole moments (NQMom) in fm**2, nuclear magnetic moments (NMagM)
  in nuclear magnetons)

  Atom         1           2           3           4           5
 IAtWgt=          32          32          12           1           1
 AtmWgt=  31.9720718  31.9720718  12.0000000   1.0078250   1.0078250
 NucSpn=           0           0           0           1           1
 AtZEff=   0.0000000   0.0000000   0.0000000   0.0000000   0.0000000
 NQMom=    0.0000000   0.0000000   0.0000000   0.0000000   0.0000000
 NMagM=    0.0000000   0.0000000   0.0000000   2.7928460   2.7928460
 AtZNuc=  16.0000000  16.0000000   6.0000000   1.0000000   1.0000000
 Leave Link  101 at Wed Aug  3 23:05:18 2016, MaxMem=    33554432 cpu:         0.2
 (Enter /home/proyectos/fulerenos/M3C-v2.0/M3C-deps_CCC/g09-AM64L-G09RevC.01/l103.exe)

 GradGradGradGradGradGradGradGradGradGradGradGradGradGradGradGradGradGrad
 Berny optimization.
 Initialization pass.
 Trust Radius=3.00D-01 FncErr=1.00D-07 GrdErr=1.00D-07
 Number of steps in this run=      2 maximum allowed number of steps=      2.
 GradGradGradGradGradGradGradGradGradGradGradGradGradGradGradGradGradGrad

 Leave Link  103 at Wed Aug  3 23:05:19 2016, MaxMem=    33554432 cpu:         0.1
 (Enter /home/proyectos/fulerenos/M3C-v2.0/M3C-deps_CCC/g09-AM64L-G09RevC.01/l202.exe)
                          Input orientation:                          
 ---------------------------------------------------------------------
 Center     Atomic      Atomic             Coordinates (Angstroms)
 Number     Number       Type             X           Y           Z
 ---------------------------------------------------------------------
      1         16           0       -1.184959    0.124551    0.617947
      2         16           0        0.717751   -0.714222    0.116041
      3          6           0        0.615575   -1.824014   -0.934433
      4          1           0        0.360556   -2.570940   -1.668909
      5          1           0       -0.567510    0.956898    1.485575
 ---------------------------------------------------------------------
                    Distance matrix (angstroms):
                    1          2          3          4          5
     1  S    0.000000
     2  S    2.139101   0.000000
     3  C    3.073876   1.531527   0.000000
     4  H    3.857979   2.600200   1.078141   0.000000
     5  H    1.351600   2.513993   3.871641   4.822626   0.000000
 Stoichiometry    CH2S2(1+,2)
 Framework group  CS[SG(CH2S2)]
 Deg. of freedom     7
 Full point group                 CS      NOp   2
 Largest Abelian subgroup         CS      NOp   2
 Largest concise Abelian subgroup C1      NOp   1
                         Standard orientation:                         
 ---------------------------------------------------------------------
 Center     Atomic      Atomic             Coordinates (Angstroms)
 Number     Number       Type             X           Y           Z
 ---------------------------------------------------------------------
      1         16           0       -0.614636   -1.214413   -0.000000
      2         16           0       -0.000000    0.834484    0.000000
      3          6           0        1.523163    0.994327    0.000000
      4          1           0        2.598775    0.920532    0.000000
      5          1           0       -1.903573   -0.807640   -0.000000
 ---------------------------------------------------------------------
 Rotational constants (GHZ):     28.3754976      4.3811566      3.7951830
 Leave Link  202 at Wed Aug  3 23:05:19 2016, MaxMem=    33554432 cpu:         0.0
 (Enter /home/proyectos/fulerenos/M3C-v2.0/M3C-deps_CCC/g09-AM64L-G09RevC.01/l301.exe)
 Standard basis: 6-311++G(3df,2p) (5D, 7F)
 Ernie: Thresh=  0.10000D-02 Tol=  0.10000D-05 Strict=F.
 There are   121 symmetry adapted cartesian basis functions of A'  symmetry.
 There are    50 symmetry adapted cartesian basis functions of A"  symmetry.
 There are   106 symmetry adapted basis functions of A'  symmetry.
 There are    47 symmetry adapted basis functions of A"  symmetry.
   153 basis functions,   226 primitive gaussians,   171 cartesian basis functions
    20 alpha electrons       19 beta electrons
       nuclear repulsion energy       131.9847000766 Hartrees.
 IExCor=  402 DFT=T Ex+Corr=B3LYP ExCW=0 ScaHFX=  0.200000
 ScaDFX=  0.800000  0.720000  1.000000  0.810000 ScalE2=  1.000000  1.000000
 IRadAn=      0 IRanWt=     -1 IRanGd=            0 ICorTp=0 IEmpDi=  4
 NAtoms=    5 NActive=    5 NUniq=    5 SFac= 1.00D+00 NAtFMM=   60 NAOKFM=F Big=F
 Integral buffers will be    131072 words long.
 Raffenetti 2 integral format.
 Two-electron integral symmetry is turned on.
 Leave Link  301 at Wed Aug  3 23:05:19 2016, MaxMem=    33554432 cpu:         0.2
 (Enter /home/proyectos/fulerenos/M3C-v2.0/M3C-deps_CCC/g09-AM64L-G09RevC.01/l302.exe)
 NPDir=0 NMtPBC=     1 NCelOv=     1 NCel=       1 NClECP=     1 NCelD=      1
         NCelK=      1 NCelE2=     1 NClLst=     1 CellRange=     0.0.
 One-electron integrals computed using PRISM.
 NBasis=   153 RedAO= T EigKep=  1.43D-04  NBF=   106    47
 NBsUse=   153 1.00D-06 EigRej= -1.00D+00 NBFU=   106    47
 Precomputing XC quadrature grid using
 IXCGrd= 4 IRadAn=           0 IRanWt=          -1 IRanGd=           0 AccXCQ= 0.00D+00.
 Generated NRdTot=       0 NPtTot=           0 NUsed=           0 NTot=          32
 NSgBfM=   169   169   169   169   169 MxSgAt=     5 MxSgA2=     5.
 Leave Link  302 at Wed Aug  3 23:05:19 2016, MaxMem=    33554432 cpu:         0.9
 (Enter /home/proyectos/fulerenos/M3C-v2.0/M3C-deps_CCC/g09-AM64L-G09RevC.01/l303.exe)
 DipDrv:  MaxL=1.
 Leave Link  303 at Wed Aug  3 23:05:19 2016, MaxMem=    33554432 cpu:         0.1
 (Enter /home/proyectos/fulerenos/M3C-v2.0/M3C-deps_CCC/g09-AM64L-G09RevC.01/l401.exe)
 ExpMin= 3.60D-02 ExpMax= 9.34D+04 ExpMxC= 3.17D+03 IAcc=3 IRadAn=         5 AccDes= 0.00D+00
 Harris functional with IExCor=  402 and IRadAn=       5 diagonalized for initial guess.
 HarFok:  IExCor=  402 AccDes= 0.00D+00 IRadAn=         5 IDoV= 1 UseB2=F ITyADJ=14
 ICtDFT=  3500011 ScaDFX=  1.000000  1.000000  1.000000  1.000000
 FoFCou: FMM=F IPFlag=           0 FMFlag=      100000 FMFlg1=           0
         NFxFlg=           0 DoJE=T BraDBF=F KetDBF=T FulRan=T
         wScrn=  0.000000 ICntrl=     500 IOpCl=  0 I1Cent=   200000004 NGrid=           0
         NMat0=    1 NMatS0=      1 NMatT0=    0 NMatD0=    1 NMtDS0=    0 NMtDT0=    0
 Petite list used in FoFCou.
 Harris En= -835.362810337931    
 JPrj=0 DoOrth=F DoCkMO=F.
 Initial guess orbital symmetries:
 Alpha Orbitals:
       Occupied  (A') (A') (A') (A') (A') (A') (A') (A") (A') (A')
                 (A") (A') (A') (A') (A') (A') (A") (A') (A") (A')
       Virtual   (A") (A') (A') (A') (A') (A') (A') (A") (A') (A')
                 (A") (A') (A") (A') (A') (A') (A') (A") (A') (A")
                 (A') (A') (A') (A") (A') (A') (A") (A') (A') (A")
                 (A') (A') (A") (A') (A') (A") (A') (A") (A') (A')
                 (A') (A') (A") (A') (A') (A") (A') (A') (A') (A")
                 (A') (A") (A') (A") (A') (A") (A') (A') (A") (A')
                 (A') (A') (A') (A") (A') (A') (A") (A') (A") (A")
                 (A') (A") (A') (A') (A") (A') (A") (A") (A') (A')
                 (A') (A') (A") (A') (A') (A") (A') (A') (A') (A')
                 (A') (A") (A") (A') (A') (A") (A') (A') (A") (A')
                 (A") (A') (A') (A') (A") (A') (A") (A') (A") (A")
                 (A') (A') (A") (A') (A') (A') (A') (A") (A') (A")
                 (A') (A') (A') (A') (A") (A") (A') (A') (A') (A')
                 (A') (A') (A')
 Beta  Orbitals:
       Occupied  (A') (A') (A') (A') (A') (A') (A') (A") (A') (A')
                 (A") (A') (A') (A') (A') (A') (A") (A') (A")
       Virtual   (A') (A") (A') (A') (A') (A') (A') (A') (A") (A')
                 (A') (A") (A') (A") (A') (A') (A') (A') (A") (A')
                 (A") (A') (A') (A') (A") (A') (A') (A") (A') (A')
                 (A") (A') (A') (A") (A') (A') (A") (A') (A") (A')
                 (A') (A') (A') (A") (A') (A') (A") (A') (A') (A')
                 (A") (A') (A") (A') (A") (A') (A") (A') (A') (A")
                 (A') (A') (A') (A') (A") (A') (A') (A") (A') (A")
                 (A") (A') (A") (A') (A') (A") (A') (A") (A") (A')
                 (A') (A') (A') (A") (A') (A') (A") (A') (A') (A')
                 (A') (A') (A") (A") (A') (A') (A") (A') (A') (A")
                 (A') (A") (A') (A') (A') (A") (A') (A") (A') (A")
                 (A") (A') (A') (A") (A') (A') (A') (A') (A") (A')
                 (A") (A') (A') (A') (A') (A") (A") (A') (A') (A')
                 (A') (A') (A') (A')
 The electronic state of the initial guess is 2-A'.
 Initial guess <Sx>= 0.0000 <Sy>= 0.0000 <Sz>= 0.5000 <S**2>= 0.7500 S= 0.5000
 Leave Link  401 at Wed Aug  3 23:05:20 2016, MaxMem=    33554432 cpu:         2.5
 (Enter /home/proyectos/fulerenos/M3C-v2.0/M3C-deps_CCC/g09-AM64L-G09RevC.01/l502.exe)
 UHF open shell SCF:
 Using DIIS extrapolation, IDIIS=  1040.
 Integral symmetry usage will be decided dynamically.
 IVT=      108598 IEndB=      108598 NGot=    33554432 MDV=    33491887
 LenX=    33491887 LenY=    33462205
 Requested convergence on RMS density matrix=1.00D-08 within 128 cycles.
 Requested convergence on MAX density matrix=1.00D-06.
 Requested convergence on             energy=1.00D-06.
 No special actions if energy rises.
 Fock matrices will be formed incrementally for  20 cycles.

 Cycle   1  Pass 1  IDiag  1:
 FoFJK:  IHMeth= 1 ICntrl=       0 DoSepK=F KAlg= 0 I1Cent=   0 FoldK=F
 IRaf= 960000000 NMat=   1 IRICut=       1 DoRegI=T DoRafI=F ISym2E= 1.
 FoFCou: FMM=F IPFlag=           0 FMFlag=      100000 FMFlg1=           0
         NFxFlg=           0 DoJE=F BraDBF=F KetDBF=F FulRan=T
         wScrn=  0.000000 ICntrl=       0 IOpCl=  1 I1Cent=           0 NGrid=           0
         NMat0=    1 NMatS0=      1 NMatT0=    0 NMatD0=    1 NMtDS0=    0 NMtDT0=    0
 Petite list used in FoFCou.
 E= -835.236402842411    
 DIIS: error= 2.52D-02 at cycle   1 NSaved=   1.
 NSaved= 1 IEnMin= 1 EnMin= -835.236402842411     IErMin= 1 ErrMin= 2.52D-02
 ErrMax= 2.52D-02  0.00D+00 EMaxC= 1.00D-01 BMatC= 5.90D-01 BMatP= 5.90D-01
 IDIUse=3 WtCom= 7.48D-01 WtEn= 2.52D-01
 Coeff-Com:  0.100D+01
 Coeff-En:   0.100D+01
 Coeff:      0.100D+01
 Gap=     0.118 Goal=   None    Shift=    0.000
 Gap=     0.151 Goal=   None    Shift=    0.000
 GapD=    0.118 DampG=1.000 DampE=0.500 DampFc=0.5000 IDamp=-1.
 Damping current iteration by 5.00D-01
 RMSDP=5.29D-03 MaxDP=1.92D-01              OVMax= 4.57D-01

 Cycle   2  Pass 1  IDiag  1:
 RMSU=  2.64D-03    CP:  1.01D+00
 E= -835.213722132589     Delta-E=        0.022680709822 Rises=F Damp=T
 DIIS: error= 1.75D-02 at cycle   2 NSaved=   2.
 NSaved= 2 IEnMin= 1 EnMin= -835.236402842411     IErMin= 2 ErrMin= 1.75D-02
 ErrMax= 1.75D-02  0.00D+00 EMaxC= 1.00D-01 BMatC= 1.95D-01 BMatP= 5.90D-01
 IDIUse=3 WtCom= 8.25D-01 WtEn= 1.75D-01
 Coeff-Com:  0.331D+00 0.669D+00
 Coeff-En:   0.551D+00 0.449D+00
 Coeff:      0.370D+00 0.630D+00
 Gap=     0.105 Goal=   None    Shift=    0.000
 Gap=     0.117 Goal=   None    Shift=    0.000
 RMSDP=1.99D-03 MaxDP=5.91D-02 DE= 2.27D-02 OVMax= 4.01D-01

 Cycle   3  Pass 1  IDiag  1:
 RMSU=  1.36D-03    CP:  1.01D+00  4.49D-01
 E= -835.347914043805     Delta-E=       -0.134191911215 Rises=F Damp=F
 DIIS: error= 1.19D-02 at cycle   3 NSaved=   3.
 NSaved= 3 IEnMin= 3 EnMin= -835.347914043805     IErMin= 3 ErrMin= 1.19D-02
 ErrMax= 1.19D-02  0.00D+00 EMaxC= 1.00D-01 BMatC= 4.05D-02 BMatP= 1.95D-01
 IDIUse=3 WtCom= 8.81D-01 WtEn= 1.19D-01
 Coeff-Com:  0.583D-01 0.299D+00 0.643D+00
 Coeff-En:   0.000D+00 0.000D+00 0.100D+01
 Coeff:      0.514D-01 0.264D+00 0.685D+00
 Gap=     0.163 Goal=   None    Shift=    0.000
 Gap=     0.117 Goal=   None    Shift=    0.000
 RMSDP=1.15D-03 MaxDP=3.89D-02 DE=-1.34D-01 OVMax= 1.21D-01

 Cycle   4  Pass 1  IDiag  1:
 RMSU=  9.22D-04    CP:  1.01D+00  5.95D-01  5.74D-01
 E= -835.352573705582     Delta-E=       -0.004659661778 Rises=F Damp=F
 DIIS: error= 8.99D-03 at cycle   4 NSaved=   4.
 NSaved= 4 IEnMin= 4 EnMin= -835.352573705582     IErMin= 4 ErrMin= 8.99D-03
 ErrMax= 8.99D-03  0.00D+00 EMaxC= 1.00D-01 BMatC= 3.20D-02 BMatP= 4.05D-02
 IDIUse=3 WtCom= 9.10D-01 WtEn= 8.99D-02
 Coeff-Com: -0.708D-02 0.604D-01 0.483D+00 0.463D+00
 Coeff-En:   0.000D+00 0.000D+00 0.428D+00 0.572D+00
 Coeff:     -0.645D-02 0.550D-01 0.478D+00 0.473D+00
 Gap=     0.156 Goal=   None    Shift=    0.000
 Gap=     0.102 Goal=   None    Shift=    0.000
 RMSDP=5.84D-04 MaxDP=2.50D-02 DE=-4.66D-03 OVMax= 6.05D-02

 Cycle   5  Pass 1  IDiag  1:
 RMSU=  2.45D-04    CP:  1.01D+00  5.41D-01  8.28D-01  5.92D-01
 E= -835.363130743420     Delta-E=       -0.010557037837 Rises=F Damp=F
 DIIS: error= 1.34D-03 at cycle   5 NSaved=   5.
 NSaved= 5 IEnMin= 5 EnMin= -835.363130743420     IErMin= 5 ErrMin= 1.34D-03
 ErrMax= 1.34D-03  0.00D+00 EMaxC= 1.00D-01 BMatC= 8.86D-04 BMatP= 3.20D-02
 IDIUse=3 WtCom= 9.87D-01 WtEn= 1.34D-02
 Coeff-Com: -0.603D-02-0.134D-01 0.147D+00 0.172D+00 0.700D+00
 Coeff-En:   0.000D+00 0.000D+00 0.000D+00 0.000D+00 0.100D+01
 Coeff:     -0.595D-02-0.133D-01 0.145D+00 0.170D+00 0.704D+00
 Gap=     0.158 Goal=   None    Shift=    0.000
 Gap=     0.104 Goal=   None    Shift=    0.000
 RMSDP=1.28D-04 MaxDP=4.15D-03 DE=-1.06D-02 OVMax= 1.01D-02

 Cycle   6  Pass 1  IDiag  1:
 RMSU=  1.04D-04    CP:  1.01D+00  5.36D-01  8.56D-01  6.59D-01  9.60D-01
 E= -835.363439996945     Delta-E=       -0.000309253525 Rises=F Damp=F
 DIIS: error= 4.88D-04 at cycle   6 NSaved=   6.
 NSaved= 6 IEnMin= 6 EnMin= -835.363439996945     IErMin= 6 ErrMin= 4.88D-04
 ErrMax= 4.88D-04  0.00D+00 EMaxC= 1.00D-01 BMatC= 1.47D-04 BMatP= 8.86D-04
 IDIUse=3 WtCom= 9.95D-01 WtEn= 4.88D-03
 Coeff-Com:  0.168D-02-0.112D-01-0.342D-01-0.509D-01 0.188D+00 0.907D+00
 Coeff-En:   0.000D+00 0.000D+00 0.000D+00 0.000D+00 0.000D+00 0.100D+01
 Coeff:      0.168D-02-0.111D-01-0.340D-01-0.506D-01 0.187D+00 0.907D+00
 Gap=     0.156 Goal=   None    Shift=    0.000
 Gap=     0.105 Goal=   None    Shift=    0.000
 RMSDP=8.74D-05 MaxDP=3.10D-03 DE=-3.09D-04 OVMax= 9.85D-03

 Cycle   7  Pass 1  IDiag  1:
 RMSU=  4.26D-05    CP:  1.01D+00  5.27D-01  8.77D-01  6.64D-01  1.21D+00
                    CP:  1.20D+00
 E= -835.363548688702     Delta-E=       -0.000108691758 Rises=F Damp=F
 DIIS: error= 2.46D-04 at cycle   7 NSaved=   7.
 NSaved= 7 IEnMin= 7 EnMin= -835.363548688702     IErMin= 7 ErrMin= 2.46D-04
 ErrMax= 2.46D-04  0.00D+00 EMaxC= 1.00D-01 BMatC= 3.38D-05 BMatP= 1.47D-04
 IDIUse=3 WtCom= 9.98D-01 WtEn= 2.46D-03
 Coeff-Com:  0.137D-02-0.269D-03-0.349D-01-0.415D-01-0.940D-01 0.329D+00
 Coeff-Com:  0.841D+00
 Coeff-En:   0.000D+00 0.000D+00 0.000D+00 0.000D+00 0.000D+00 0.000D+00
 Coeff-En:   0.100D+01
 Coeff:      0.136D-02-0.268D-03-0.348D-01-0.414D-01-0.937D-01 0.328D+00
 Coeff:      0.841D+00
 Gap=     0.156 Goal=   None    Shift=    0.000
 Gap=     0.105 Goal=   None    Shift=    0.000
 RMSDP=4.27D-05 MaxDP=1.80D-03 DE=-1.09D-04 OVMax= 4.74D-03

 Cycle   8  Pass 1  IDiag  1:
 RMSU=  2.18D-05    CP:  1.01D+00  5.26D-01  8.83D-01  6.78D-01  1.27D+00
                    CP:  1.47D+00  1.27D+00
 E= -835.363579695187     Delta-E=       -0.000031006484 Rises=F Damp=F
 DIIS: error= 1.70D-04 at cycle   8 NSaved=   8.
 NSaved= 8 IEnMin= 8 EnMin= -835.363579695187     IErMin= 8 ErrMin= 1.70D-04
 ErrMax= 1.70D-04  0.00D+00 EMaxC= 1.00D-01 BMatC= 6.02D-06 BMatP= 3.38D-05
 IDIUse=3 WtCom= 9.98D-01 WtEn= 1.70D-03
 Coeff-Com: -0.739D-03 0.246D-02 0.564D-02 0.108D-01-0.376D-01-0.115D+00
 Coeff-Com:  0.857D-01 0.105D+01
 Coeff-En:   0.000D+00 0.000D+00 0.000D+00 0.000D+00 0.000D+00 0.000D+00
 Coeff-En:   0.000D+00 0.100D+01
 Coeff:     -0.737D-03 0.245D-02 0.563D-02 0.108D-01-0.375D-01-0.115D+00
 Coeff:      0.856D-01 0.105D+01
 Gap=     0.156 Goal=   None    Shift=    0.000
 Gap=     0.106 Goal=   None    Shift=    0.000
 RMSDP=2.67D-05 MaxDP=1.38D-03 DE=-3.10D-05 OVMax= 3.81D-03

 Cycle   9  Pass 1  IDiag  1:
 RMSU=  1.05D-05    CP:  1.01D+00  5.27D-01  8.84D-01  6.84D-01  1.29D+00
                    CP:  1.59D+00  1.62D+00  1.52D+00
 E= -835.363590762406     Delta-E=       -0.000011067220 Rises=F Damp=F
 DIIS: error= 9.69D-05 at cycle   9 NSaved=   9.
 NSaved= 9 IEnMin= 9 EnMin= -835.363590762406     IErMin= 9 ErrMin= 9.69D-05
 ErrMax= 9.69D-05  0.00D+00 EMaxC= 1.00D-01 BMatC= 1.98D-06 BMatP= 6.02D-06
 IDIUse=1 WtCom= 1.00D+00 WtEn= 0.00D+00
 Coeff-Com: -0.336D-03 0.154D-03 0.107D-01 0.109D-01 0.342D-01-0.120D+00
 Coeff-Com: -0.282D+00 0.391D-01 0.131D+01
 Coeff:     -0.336D-03 0.154D-03 0.107D-01 0.109D-01 0.342D-01-0.120D+00
 Coeff:     -0.282D+00 0.391D-01 0.131D+01
 Gap=     0.155 Goal=   None    Shift=    0.000
 Gap=     0.106 Goal=   None    Shift=    0.000
 RMSDP=2.63D-05 MaxDP=1.34D-03 DE=-1.11D-05 OVMax= 3.71D-03

 Cycle  10  Pass 1  IDiag  1:
 RMSU=  3.77D-06    CP:  1.01D+00  5.26D-01  8.86D-01  6.86D-01  1.33D+00
                    CP:  1.68D+00  1.95D+00  2.26D+00  1.76D+00
 E= -835.363596585581     Delta-E=       -0.000005823175 Rises=F Damp=F
 DIIS: error= 3.89D-05 at cycle  10 NSaved=  10.
 NSaved=10 IEnMin=10 EnMin= -835.363596585581     IErMin=10 ErrMin= 3.89D-05
 ErrMax= 3.89D-05  0.00D+00 EMaxC= 1.00D-01 BMatC= 3.58D-07 BMatP= 1.98D-06
 IDIUse=1 WtCom= 1.00D+00 WtEn= 0.00D+00
 Coeff-Com:  0.124D-03-0.549D-03 0.155D-03-0.554D-03 0.129D-01 0.170D-01
 Coeff-Com: -0.689D-01-0.271D+00 0.131D+00 0.118D+01
 Coeff:      0.124D-03-0.549D-03 0.155D-03-0.554D-03 0.129D-01 0.170D-01
 Coeff:     -0.689D-01-0.271D+00 0.131D+00 0.118D+01
 Gap=     0.155 Goal=   None    Shift=    0.000
 Gap=     0.106 Goal=   None    Shift=    0.000
 RMSDP=1.38D-05 MaxDP=7.38D-04 DE=-5.82D-06 OVMax= 1.89D-03

 Cycle  11  Pass 1  IDiag  1:
 RMSU=  1.97D-06    CP:  1.01D+00  5.26D-01  8.86D-01  6.87D-01  1.34D+00
                    CP:  1.73D+00  2.12D+00  2.64D+00  2.27D+00  1.48D+00
 E= -835.363597645407     Delta-E=       -0.000001059826 Rises=F Damp=F
 DIIS: error= 9.66D-06 at cycle  11 NSaved=  11.
 NSaved=11 IEnMin=11 EnMin= -835.363597645407     IErMin=11 ErrMin= 9.66D-06
 ErrMax= 9.66D-06  0.00D+00 EMaxC= 1.00D-01 BMatC= 4.35D-08 BMatP= 3.58D-07
 IDIUse=1 WtCom= 1.00D+00 WtEn= 0.00D+00
 Coeff-Com:  0.928D-04-0.190D-03-0.138D-02-0.117D-02-0.251D-02 0.199D-01
 Coeff-Com:  0.256D-01-0.562D-01-0.145D+00 0.205D+00 0.956D+00
 Coeff:      0.928D-04-0.190D-03-0.138D-02-0.117D-02-0.251D-02 0.199D-01
 Coeff:      0.256D-01-0.562D-01-0.145D+00 0.205D+00 0.956D+00
 Gap=     0.155 Goal=   None    Shift=    0.000
 Gap=     0.106 Goal=   None    Shift=    0.000
 RMSDP=2.91D-06 MaxDP=1.47D-04 DE=-1.06D-06 OVMax= 4.01D-04

 Cycle  12  Pass 1  IDiag  1:
 RMSU=  6.05D-07    CP:  1.01D+00  5.27D-01  8.86D-01  6.88D-01  1.34D+00
                    CP:  1.74D+00  2.15D+00  2.72D+00  2.39D+00  1.77D+00
                    CP:  1.16D+00
 E= -835.363597704424     Delta-E=       -0.000000059016 Rises=F Damp=F
 DIIS: error= 2.42D-06 at cycle  12 NSaved=  12.
 NSaved=12 IEnMin=12 EnMin= -835.363597704424     IErMin=12 ErrMin= 2.42D-06
 ErrMax= 2.42D-06  0.00D+00 EMaxC= 1.00D-01 BMatC= 5.03D-09 BMatP= 4.35D-08
 IDIUse=1 WtCom= 1.00D+00 WtEn= 0.00D+00
 Coeff-Com: -0.140D-04 0.543D-04-0.160D-03-0.183D-03-0.125D-02-0.132D-02
 Coeff-Com:  0.118D-01 0.284D-01-0.127D-01-0.175D+00 0.486D-01 0.110D+01
 Coeff:     -0.140D-04 0.543D-04-0.160D-03-0.183D-03-0.125D-02-0.132D-02
 Coeff:      0.118D-01 0.284D-01-0.127D-01-0.175D+00 0.486D-01 0.110D+01
 Gap=     0.155 Goal=   None    Shift=    0.000
 Gap=     0.106 Goal=   None    Shift=    0.000
 RMSDP=8.91D-07 MaxDP=4.25D-05 DE=-5.90D-08 OVMax= 1.03D-04

 Cycle  13  Pass 1  IDiag  1:
 RMSU=  1.98D-07    CP:  1.01D+00  5.27D-01  8.86D-01  6.88D-01  1.34D+00
                    CP:  1.74D+00  2.15D+00  2.74D+00  2.42D+00  1.85D+00
                    CP:  1.37D+00  1.33D+00
 E= -835.363597710211     Delta-E=       -0.000000005788 Rises=F Damp=F
 DIIS: error= 6.34D-07 at cycle  13 NSaved=  13.
 NSaved=13 IEnMin=13 EnMin= -835.363597710211     IErMin=13 ErrMin= 6.34D-07
 ErrMax= 6.34D-07  0.00D+00 EMaxC= 1.00D-01 BMatC= 3.48D-10 BMatP= 5.03D-09
 IDIUse=1 WtCom= 1.00D+00 WtEn= 0.00D+00
 Coeff-Com: -0.102D-04 0.249D-04 0.285D-04 0.565D-04-0.176D-03-0.146D-02
 Coeff-Com:  0.414D-03 0.668D-02 0.425D-02-0.238D-01-0.632D-01 0.793D-01
 Coeff-Com:  0.998D+00
 Coeff:     -0.102D-04 0.249D-04 0.285D-04 0.565D-04-0.176D-03-0.146D-02
 Coeff:      0.414D-03 0.668D-02 0.425D-02-0.238D-01-0.632D-01 0.793D-01
 Coeff:      0.998D+00
 Gap=     0.155 Goal=   None    Shift=    0.000
 Gap=     0.106 Goal=   None    Shift=    0.000
 RMSDP=1.80D-07 MaxDP=8.12D-06 DE=-5.79D-09 OVMax= 1.66D-05

 Cycle  14  Pass 1  IDiag  1:
 RMSU=  5.57D-08    CP:  1.01D+00  5.27D-01  8.86D-01  6.88D-01  1.34D+00
                    CP:  1.74D+00  2.15D+00  2.74D+00  2.43D+00  1.87D+00
                    CP:  1.40D+00  1.50D+00  1.21D+00
 E= -835.363597710524     Delta-E=       -0.000000000313 Rises=F Damp=F
 DIIS: error= 2.69D-07 at cycle  14 NSaved=  14.
 NSaved=14 IEnMin=14 EnMin= -835.363597710524     IErMin=14 ErrMin= 2.69D-07
 ErrMax= 2.69D-07  0.00D+00 EMaxC= 1.00D-01 BMatC= 5.04D-11 BMatP= 3.48D-10
 IDIUse=1 WtCom= 1.00D+00 WtEn= 0.00D+00
 Coeff-Com:  0.321D-06-0.446D-05 0.242D-04 0.415D-04 0.180D-03-0.176D-03
 Coeff-Com: -0.144D-02-0.223D-02 0.350D-02 0.163D-01-0.226D-01-0.111D+00
 Coeff-Com:  0.189D+00 0.928D+00
 Coeff:      0.321D-06-0.446D-05 0.242D-04 0.415D-04 0.180D-03-0.176D-03
 Coeff:     -0.144D-02-0.223D-02 0.350D-02 0.163D-01-0.226D-01-0.111D+00
 Coeff:      0.189D+00 0.928D+00
 Gap=     0.155 Goal=   None    Shift=    0.000
 Gap=     0.106 Goal=   None    Shift=    0.000
 RMSDP=5.75D-08 MaxDP=2.97D-06 DE=-3.13D-10 OVMax= 6.50D-06

 Cycle  15  Pass 1  IDiag  1:
 RMSU=  1.75D-08    CP:  1.01D+00  5.27D-01  8.86D-01  6.88D-01  1.34D+00
                    CP:  1.74D+00  2.15D+00  2.74D+00  2.43D+00  1.87D+00
                    CP:  1.41D+00  1.53D+00  1.39D+00  1.20D+00
 E= -835.363597710562     Delta-E=       -0.000000000038 Rises=F Damp=F
 DIIS: error= 5.45D-08 at cycle  15 NSaved=  15.
 NSaved=15 IEnMin=15 EnMin= -835.363597710562     IErMin=15 ErrMin= 5.45D-08
 ErrMax= 5.45D-08  0.00D+00 EMaxC= 1.00D-01 BMatC= 3.21D-12 BMatP= 5.04D-11
 IDIUse=1 WtCom= 1.00D+00 WtEn= 0.00D+00
 Coeff-Com:  0.957D-06-0.171D-05-0.841D-05-0.117D-04-0.277D-05 0.186D-03
 Coeff-Com:  0.167D-03-0.776D-03-0.485D-03 0.106D-02 0.914D-02-0.160D-03
 Coeff-Com: -0.123D+00-0.731D-01 0.119D+01
 Coeff:      0.957D-06-0.171D-05-0.841D-05-0.117D-04-0.277D-05 0.186D-03
 Coeff:      0.167D-03-0.776D-03-0.485D-03 0.106D-02 0.914D-02-0.160D-03
 Coeff:     -0.123D+00-0.731D-01 0.119D+01
 Gap=     0.155 Goal=   None    Shift=    0.000
 Gap=     0.106 Goal=   None    Shift=    0.000
 RMSDP=2.14D-08 MaxDP=1.10D-06 DE=-3.84D-11 OVMax= 2.35D-06

 Cycle  16  Pass 1  IDiag  1:
 RMSU=  3.94D-09    CP:  1.01D+00  5.27D-01  8.86D-01  6.88D-01  1.34D+00
                    CP:  1.74D+00  2.15D+00  2.74D+00  2.43D+00  1.87D+00
                    CP:  1.41D+00  1.55D+00  1.44D+00  1.38D+00  1.34D+00
 E= -835.363597710573     Delta-E=       -0.000000000011 Rises=F Damp=F
 DIIS: error= 1.50D-08 at cycle  16 NSaved=  16.
 NSaved=16 IEnMin=16 EnMin= -835.363597710573     IErMin=16 ErrMin= 1.50D-08
 ErrMax= 1.50D-08  0.00D+00 EMaxC= 1.00D-01 BMatC= 1.66D-13 BMatP= 3.21D-12
 IDIUse=1 WtCom= 1.00D+00 WtEn= 0.00D+00
 Coeff-Com:  0.316D-07-0.297D-07 0.677D-06-0.618D-06-0.537D-05-0.128D-04
 Coeff-Com:  0.260D-04 0.170D-03-0.489D-04-0.742D-03-0.199D-03 0.313D-02
 Coeff-Com:  0.938D-02-0.229D-01-0.178D+00 0.119D+01
 Coeff:      0.316D-07-0.297D-07 0.677D-06-0.618D-06-0.537D-05-0.128D-04
 Coeff:      0.260D-04 0.170D-03-0.489D-04-0.742D-03-0.199D-03 0.313D-02
 Coeff:      0.938D-02-0.229D-01-0.178D+00 0.119D+01
 Gap=     0.155 Goal=   None    Shift=    0.000
 Gap=     0.106 Goal=   None    Shift=    0.000
 RMSDP=3.31D-09 MaxDP=1.26D-07 DE=-1.08D-11 OVMax= 3.70D-07

 SCF Done:  E(UB3LYP) =  -835.363597711     A.U. after   16 cycles
            NFock= 16  Conv=0.33D-08     -V/T= 2.0016
 <Sx>= 0.0000 <Sy>= 0.0000 <Sz>= 0.5000 <S**2>= 0.7698 S= 0.5098
 <L.S>= 0.000000000000E+00
 KE= 8.340605542946D+02 PE=-2.238433123484D+03 EE= 4.370242714022D+02
 Annihilation of the first spin contaminant:
 S**2 before annihilation     0.7698,   after     0.7503
 Leave Link  502 at Wed Aug  3 23:05:59 2016, MaxMem=    33554432 cpu:       152.3
 (Enter /home/proyectos/fulerenos/M3C-v2.0/M3C-deps_CCC/g09-AM64L-G09RevC.01/l801.exe)
 DoSCS=F DFT=T ScalE2(SS,OS)=  1.000000  1.000000
 Range of M.O.s used for correlation:     1   153
 NBasis=   153 NAE=    20 NBE=    19 NFC=     0 NFV=     0
 NROrb=    153 NOA=    20 NOB=    19 NVA=   133 NVB=   134

 **** Warning!!: The largest alpha MO coefficient is  0.36910595D+02


 **** Warning!!: The largest beta MO coefficient is  0.37615709D+02

 Leave Link  801 at Wed Aug  3 23:05:59 2016, MaxMem=    33554432 cpu:         0.1
 (Enter /home/proyectos/fulerenos/M3C-v2.0/M3C-deps_CCC/g09-AM64L-G09RevC.01/l1101.exe)
 Using compressed storage, NAtomX=     5.
 Will process      6 centers per pass.
 Leave Link 1101 at Wed Aug  3 23:06:00 2016, MaxMem=    33554432 cpu:         1.2
 (Enter /home/proyectos/fulerenos/M3C-v2.0/M3C-deps_CCC/g09-AM64L-G09RevC.01/l1102.exe)
 Symmetrizing basis deriv contribution to polar:
 IMax=3 JMax=2 DiffMx= 0.00D+00
 Leave Link 1102 at Wed Aug  3 23:06:00 2016, MaxMem=    33554432 cpu:         0.1
 (Enter /home/proyectos/fulerenos/M3C-v2.0/M3C-deps_CCC/g09-AM64L-G09RevC.01/l1110.exe)
 Forming Gx(P) for the SCF density, NAtomX=     5.
 Integral derivatives from FoFJK, PRISM(SPDF).
 Do as many integral derivatives as possible in FoFJK.
 G2DrvN: MDV=      33554288.
 G2DrvN: will do     6 centers at a time, making    1 passes.
 Calling FoFCou, ICntrl=  3107 FMM=F I1Cent=   0 AccDes= 0.00D+00.
 FoFJK:  IHMeth= 1 ICntrl=    3107 DoSepK=F KAlg= 0 I1Cent=   0 FoldK=F
 IRaf=         0 NMat=   1 IRICut=       1 DoRegI=T DoRafI=F ISym2E= 1.
 FoFCou: FMM=F IPFlag=           0 FMFlag=      100000 FMFlg1=           0
         NFxFlg=           0 DoJE=F BraDBF=F KetDBF=F FulRan=T
         wScrn=  0.000000 ICntrl=    3107 IOpCl=  1 I1Cent=           0 NGrid=           0
         NMat0=    1 NMatS0=      1 NMatT0=    0 NMatD0=    1 NMtDS0=    0 NMtDT0=    0
 Petite list used in FoFCou.
 End of G2Drv F.D. properties file   721 does not exist.
 End of G2Drv F.D. properties file   722 does not exist.
 End of G2Drv F.D. properties file   788 does not exist.
 Leave Link 1110 at Wed Aug  3 23:06:18 2016, MaxMem=    33554432 cpu:        71.9
 (Enter /home/proyectos/fulerenos/M3C-v2.0/M3C-deps_CCC/g09-AM64L-G09RevC.01/l1002.exe)
 Minotr:  UHF open shell wavefunction.
          IDoAtm=11111
          Direct CPHF calculation.
          Differentiating once with respect to electric field.
                with respect to dipole field.
          Differentiating once with respect to nuclear coordinates.
          Using symmetry in CPHF.
          Requested convergence is 1.0D-08 RMS, and 1.0D-07 maximum.
          Secondary convergence is 1.0D-12 RMS, and 1.0D-12 maximum.
          NewPWx=T KeepS1=F KeepF1=F KeepIn=T MapXYZ=F SortEE=F KeepMc=T.
          MDV=      33554072 using IRadAn=       2.
 Generate precomputed XC quadrature information.
          Solving linear equations simultaneously, MaxMat=       0.
 FoFJK:  IHMeth= 1 ICntrl=       0 DoSepK=F KAlg= 0 I1Cent=   0 FoldK=F
 IRaf= 960000000 NMat=  18 IRICut=      45 DoRegI=T DoRafI=T ISym2E= 2.
 FoFCou: FMM=F IPFlag=           0 FMFlag=      100000 FMFlg1=           0
         NFxFlg=           0 DoJE=F BraDBF=F KetDBF=F FulRan=T
         wScrn=  0.000000 ICntrl=       0 IOpCl=  1 I1Cent=           0 NGrid=           0
         NMat0=   18 NMatS0=     18 NMatT0=    0 NMatD0=   18 NMtDS0=    0 NMtDT0=    0
 Integrals replicated using symmetry in FoFCou.
          There are    18 degrees of freedom in the 1st order CPHF.  IDoFFX=6 NUNeed=     3.
     18 vectors produced by pass  0 Test12= 2.89D-14 5.56D-09 XBig12= 2.23D+02 6.93D+00.
 AX will form    18 AO Fock derivatives at one time.
     15 vectors produced by pass  1 Test12= 2.89D-14 5.56D-09 XBig12= 6.38D+01 1.56D+00.
     15 vectors produced by pass  2 Test12= 2.89D-14 5.56D-09 XBig12= 3.11D+00 3.04D-01.
     15 vectors produced by pass  3 Test12= 2.89D-14 5.56D-09 XBig12= 5.02D-02 3.80D-02.
     15 vectors produced by pass  4 Test12= 2.89D-14 5.56D-09 XBig12= 1.21D-03 7.65D-03.
     15 vectors produced by pass  5 Test12= 2.89D-14 5.56D-09 XBig12= 2.53D-05 1.16D-03.
     15 vectors produced by pass  6 Test12= 2.89D-14 5.56D-09 XBig12= 2.71D-07 1.37D-04.
     12 vectors produced by pass  7 Test12= 2.89D-14 5.56D-09 XBig12= 1.93D-09 6.00D-06.
      4 vectors produced by pass  8 Test12= 2.89D-14 5.56D-09 XBig12= 1.11D-11 3.89D-07.
      2 vectors produced by pass  9 Test12= 2.89D-14 5.56D-09 XBig12= 8.08D-14 3.68D-08.
      1 vectors produced by pass 10 Test12= 2.89D-14 5.56D-09 XBig12= 1.67D-15 1.05D-08.
 InvSVY:  IOpt=1 It=  1 EMax= 5.33D-15
 Solved reduced A of dimension   127 with    18 vectors.
 FullF1:  Do perturbations    1 to     3.
 Isotropic polarizability for W=    0.000000       48.99 Bohr**3.
 End of Minotr F.D. properties file   721 does not exist.
 End of Minotr F.D. properties file   722 does not exist.
 End of Minotr F.D. properties file   788 does not exist.
 Leave Link 1002 at Wed Aug  3 23:07:18 2016, MaxMem=    33554432 cpu:       235.4
 (Enter /home/proyectos/fulerenos/M3C-v2.0/M3C-deps_CCC/g09-AM64L-G09RevC.01/l601.exe)
 Copying SCF densities to generalized density rwf, IOpCl= 1 IROHF=0.

 **********************************************************************

            Population analysis using the SCF density.

 **********************************************************************

 Orbital symmetries:
 Alpha Orbitals:
       Occupied  (A') (A') (A') (A') (A') (A') (A") (A') (A') (A')
                 (A") (A') (A') (A') (A') (A') (A") (A') (A') (A")
       Virtual   (A") (A') (A') (A') (A') (A') (A') (A") (A') (A')
                 (A") (A") (A') (A') (A") (A') (A') (A') (A") (A')
                 (A') (A') (A") (A') (A') (A') (A") (A") (A') (A')
                 (A') (A') (A") (A') (A') (A") (A') (A") (A') (A')
                 (A') (A") (A') (A') (A') (A") (A') (A') (A') (A")
                 (A') (A") (A') (A") (A') (A") (A') (A') (A') (A")
                 (A') (A') (A') (A") (A') (A") (A') (A') (A") (A")
                 (A') (A') (A") (A") (A') (A') (A") (A') (A") (A')
                 (A') (A') (A") (A') (A') (A") (A') (A') (A') (A')
                 (A') (A") (A") (A') (A') (A") (A') (A') (A") (A')
                 (A") (A') (A') (A') (A") (A') (A") (A') (A") (A")
                 (A') (A') (A") (A') (A') (A') (A') (A") (A') (A")
                 (A') (A') (A') (A') (A") (A") (A') (A') (A') (A')
                 (A') (A') (A')
 Beta  Orbitals:
       Occupied  (A') (A') (A') (A') (A') (A') (A") (A') (A') (A')
                 (A") (A') (A') (A') (A') (A') (A") (A') (A")
       Virtual   (A') (A") (A') (A') (A') (A') (A') (A') (A") (A')
                 (A') (A") (A") (A') (A') (A") (A') (A') (A') (A")
                 (A') (A') (A') (A") (A') (A') (A") (A') (A') (A")
                 (A') (A') (A') (A") (A') (A") (A') (A') (A") (A')
                 (A') (A') (A") (A') (A') (A') (A") (A') (A') (A')
                 (A") (A') (A") (A') (A") (A') (A") (A') (A') (A")
                 (A') (A') (A') (A') (A") (A') (A") (A') (A") (A')
                 (A") (A') (A") (A') (A") (A') (A') (A") (A") (A')
                 (A') (A') (A') (A") (A') (A') (A") (A') (A') (A')
                 (A') (A') (A") (A") (A') (A') (A") (A') (A") (A')
                 (A') (A") (A') (A') (A') (A") (A') (A") (A') (A")
                 (A") (A') (A') (A") (A') (A') (A') (A') (A") (A')
                 (A") (A') (A') (A') (A') (A") (A") (A') (A') (A')
                 (A') (A') (A') (A')
 The electronic state is 2-A'.
 Alpha  occ. eigenvalues --  -89.18949 -89.11791 -10.51315  -8.27011  -8.20158
 Alpha  occ. eigenvalues --   -6.23138  -6.22906  -6.22807  -6.16847  -6.16093
 Alpha  occ. eigenvalues --   -6.15499  -1.12024  -0.98444  -0.84681  -0.72961
 Alpha  occ. eigenvalues --   -0.67874  -0.62130  -0.60531  -0.50731  -0.49831
 Alpha virt. eigenvalues --   -0.34308  -0.28043  -0.19711  -0.18840  -0.14220
 Alpha virt. eigenvalues --   -0.12417  -0.10524  -0.10229  -0.09833  -0.08486
 Alpha virt. eigenvalues --   -0.07254  -0.05913  -0.05496  -0.04897  -0.03456
 Alpha virt. eigenvalues --   -0.01819  -0.01174  -0.00456  -0.00274   0.00673
 Alpha virt. eigenvalues --    0.03622   0.06793   0.08508   0.09068   0.11058
 Alpha virt. eigenvalues --    0.13356   0.13439   0.14258   0.14432   0.15299
 Alpha virt. eigenvalues --    0.17017   0.18546   0.19163   0.24031   0.24592
 Alpha virt. eigenvalues --    0.24687   0.28007   0.29575   0.35602   0.38913
 Alpha virt. eigenvalues --    0.43624   0.44905   0.44930   0.47295   0.50389
 Alpha virt. eigenvalues --    0.62053   0.62692   0.67945   0.70388   0.71166
 Alpha virt. eigenvalues --    0.74083   0.75278   0.77305   0.77832   0.80310
 Alpha virt. eigenvalues --    0.82330   0.83493   0.85412   0.86823   0.87087
 Alpha virt. eigenvalues --    0.93310   0.94536   1.16719   1.18037   1.22965
 Alpha virt. eigenvalues --    1.23623   1.24454   1.30910   1.31041   1.36523
 Alpha virt. eigenvalues --    1.38264   1.43877   1.43964   1.45252   1.46544
 Alpha virt. eigenvalues --    1.53300   1.57216   1.62723   1.63761   1.67098
 Alpha virt. eigenvalues --    1.70910   1.84877   1.91461   1.94564   2.01495
 Alpha virt. eigenvalues --    2.04274   2.10305   2.23628   2.30903   2.46262
 Alpha virt. eigenvalues --    2.49498   2.51404   2.53891   2.54142   2.61669
 Alpha virt. eigenvalues --    2.75121   2.78469   3.03420   3.04810   3.22691
 Alpha virt. eigenvalues --    3.58373   3.66109   3.79503   3.87630   4.09415
 Alpha virt. eigenvalues --    4.14542   4.33242   4.34255   4.38888   4.41708
 Alpha virt. eigenvalues --    4.44852   4.58970   4.73507   4.83046   4.99640
 Alpha virt. eigenvalues --    5.16402   5.70813   6.65347   6.67240   6.93122
 Alpha virt. eigenvalues --    6.93759   7.27656   7.71056   8.28403  17.03661
 Alpha virt. eigenvalues --   17.08578  17.15345  17.23140  17.42732  17.83116
 Alpha virt. eigenvalues --   23.76659 188.84955 189.28394
  Beta  occ. eigenvalues --  -89.19028 -89.11601 -10.49970  -8.27048  -8.19983
  Beta  occ. eigenvalues --   -6.23274  -6.23035  -6.22869  -6.16231  -6.15948
  Beta  occ. eigenvalues --   -6.15444  -1.10735  -0.96642  -0.82761  -0.71761
  Beta  occ. eigenvalues --   -0.66743  -0.61726  -0.58974  -0.49320
  Beta virt. eigenvalues --   -0.38733  -0.32984  -0.25832  -0.18857  -0.18000
  Beta virt. eigenvalues --   -0.14105  -0.12172  -0.10304  -0.10177  -0.09527
  Beta virt. eigenvalues --   -0.08242  -0.07035  -0.05879  -0.05196  -0.04175
  Beta virt. eigenvalues --   -0.03232  -0.01425  -0.00959  -0.00256  -0.00245
  Beta virt. eigenvalues --    0.00935   0.04182   0.07177   0.08640   0.09200
  Beta virt. eigenvalues --    0.11447   0.13560   0.13755   0.14954   0.15005
  Beta virt. eigenvalues --    0.15492   0.17709   0.18881   0.19773   0.24612
  Beta virt. eigenvalues --    0.25018   0.25716   0.28811   0.29981   0.36665
  Beta virt. eigenvalues --    0.39607   0.44087   0.45464   0.46346   0.48325
  Beta virt. eigenvalues --    0.51123   0.62062   0.63352   0.68263   0.70773
  Beta virt. eigenvalues --    0.71241   0.74723   0.75485   0.77791   0.77833
  Beta virt. eigenvalues --    0.80362   0.82791   0.84362   0.86005   0.87127
  Beta virt. eigenvalues --    0.87756   0.93826   0.95267   1.18055   1.19724
  Beta virt. eigenvalues --    1.23571   1.24102   1.25698   1.32206   1.32743
  Beta virt. eigenvalues --    1.38697   1.40313   1.44061   1.44085   1.45236
  Beta virt. eigenvalues --    1.47512   1.53926   1.58596   1.63856   1.64016
  Beta virt. eigenvalues --    1.68041   1.71999   1.86194   1.92015   1.94727
  Beta virt. eigenvalues --    2.02393   2.04821   2.11952   2.24591   2.31826
  Beta virt. eigenvalues --    2.46929   2.52100   2.53170   2.58968   2.59188
  Beta virt. eigenvalues --    2.65689   2.78076   2.81279   3.05327   3.05613
  Beta virt. eigenvalues --    3.23988   3.58308   3.66169   3.79479   3.88237
  Beta virt. eigenvalues --    4.09317   4.15192   4.33251   4.34377   4.38868
  Beta virt. eigenvalues --    4.41993   4.45353   4.59369   4.73624   4.83515
  Beta virt. eigenvalues --    4.99834   5.16844   5.71280   6.71711   6.73579
  Beta virt. eigenvalues --    6.94299   6.99086   7.30369   7.71408   8.28838
  Beta virt. eigenvalues --   17.03654  17.08481  17.15522  17.23227  17.43213
  Beta virt. eigenvalues --   17.83084  23.78142 188.85127 189.28343
          Condensed to atoms (all electrons):
               1          2          3          4          5
     1  S   15.352554   0.302355  -0.071986  -0.013178   0.324146
     2  S    0.302355  15.030599   0.573870  -0.083960   0.008746
     3  C   -0.071986   0.573870   4.999304   0.349517  -0.004705
     4  H   -0.013178  -0.083960   0.349517   0.369609  -0.000632
     5  H    0.324146   0.008746  -0.004705  -0.000632   0.479588
          Atomic-Atomic Spin Densities.
               1          2          3          4          5
     1  S    0.303932  -0.002362  -0.026554  -0.003415   0.000144
     2  S   -0.002362  -0.090739   0.036693   0.001784  -0.000765
     3  C   -0.026554   0.036693   0.802126  -0.009457   0.000944
     4  H   -0.003415   0.001784  -0.009457  -0.006993   0.000139
     5  H    0.000144  -0.000765   0.000944   0.000139  -0.002629
 Mulliken charges and spin densities:
               1          2
     1  S    0.106109   0.271745
     2  S    0.168391  -0.055388
     3  C    0.154000   0.803752
     4  H    0.378643  -0.017942
     5  H    0.192857  -0.002166
 Sum of Mulliken charges =   1.00000   1.00000
 Mulliken charges and spin densities with hydrogens summed into heavy atoms:
               1          2
     1  S    0.298966   0.269578
     2  S    0.168391  -0.055388
     3  C    0.532643   0.785810
 APT charges:
               1
     1  S    0.027294
     2  S    0.553603
     3  C   -0.043794
     4  H    0.319446
     5  H    0.143451
 Sum of APT charges =   1.00000
 APT charges with hydrogens summed into heavy atoms:
               1
     1  S    0.170745
     2  S    0.553603
     3  C    0.275652
 Electronic spatial extent (au):  <R**2>=            310.0100
 Charge=              1.0000 electrons
 Dipole moment (field-independent basis, Debye):
    X=              1.3639    Y=              1.1241    Z=              0.0000  Tot=              1.7674
 Quadrupole moment (field-independent basis, Debye-Ang):
   XX=            -14.8357   YY=            -23.2883   ZZ=            -30.5592
   XY=              5.8031   XZ=             -0.0000   YZ=              0.0000
 Traceless Quadrupole moment (field-independent basis, Debye-Ang):
   XX=              8.0587   YY=             -0.3939   ZZ=             -7.6648
   XY=              5.8031   XZ=             -0.0000   YZ=              0.0000
 Octapole moment (field-independent basis, Debye-Ang**2):
  XXX=             15.2010  YYY=             -3.8620  ZZZ=             -0.0000  XYY=             -1.3888
  XXY=              4.7082  XXZ=              0.0000  XZZ=             -0.0727  YZZ=              1.3345
  YYZ=             -0.0000  XYZ=              0.0000
 Hexadecapole moment (field-independent basis, Debye-Ang**3):
 XXXX=            -75.5005 YYYY=           -202.6608 ZZZZ=            -36.7643 XXXY=            -24.2620
 XXXZ=             -0.0000 YYYX=            -47.3871 YYYZ=             -0.0000 ZZZX=             -0.0000
 ZZZY=             -0.0000 XXYY=            -49.7453 XXZZ=            -34.0413 YYZZ=            -43.7743
 XXYZ=             -0.0000 YYXZ=             -0.0000 ZZXY=            -19.8319
 N-N= 1.319847000766D+02 E-N=-2.238433122759D+03  KE= 8.340605542946D+02
 Symmetry A'   KE= 7.566356840907D+02
 Symmetry A"   KE= 7.742487020384D+01
  Exact polarizability:  58.096  18.200  56.952  -0.000   0.000  31.927
 Approx polarizability: 120.932  45.958 115.175   0.000   0.000  49.790
                          Isotropic Fermi Contact Couplings
        Atom                 a.u.       MegaHertz       Gauss      10(-4) cm-1
     1  S(33)             -0.01153      -3.95878      -1.41259      -1.32051
     2  S(33)              0.32319     111.00681      39.60999      37.02789
     3  C(13)              0.11230     126.24881      45.04871      42.11207
     4  H(1)              -0.01068     -47.72442     -17.02926     -15.91915
     5  H(1)              -0.00123      -5.47914      -1.95509      -1.82765
 --------------------------------------------------------
       Center         ----  Spin Dipole Couplings  ----
                      3XX-RR        3YY-RR        3ZZ-RR
 --------------------------------------------------------
     1   Atom       -0.480019      1.419696     -0.939677
     2   Atom        0.391985     -0.310267     -0.081718
     3   Atom       -0.531903      0.934878     -0.402974
     4   Atom        0.067847     -0.010734     -0.057113
     5   Atom        0.012963      0.002834     -0.015797
 --------------------------------------------------------
                        XY            XZ            YZ
 --------------------------------------------------------
     1   Atom        0.736305      0.000000      0.000000
     2   Atom       -0.081830      0.000000     -0.000000
     3   Atom       -0.158477      0.000000     -0.000000
     4   Atom       -0.001293      0.000000      0.000000
     5   Atom       -0.001320      0.000000     -0.000000
 --------------------------------------------------------


 ---------------------------------------------------------------------------------
              Anisotropic Spin Dipole Couplings in Principal Axis System
 ---------------------------------------------------------------------------------

       Atom             a.u.   MegaHertz   Gauss  10(-4) cm-1        Axes

              Baa    -0.9397   -38.526   -13.747   -12.851  0.0000  0.0000  1.0000
     1 S(33)  Bbb    -0.7320   -30.011   -10.709   -10.010  0.9461 -0.3238 -0.0000
              Bcc     1.6717    68.537    24.456    22.861  0.3238  0.9461 -0.0000
 
              Baa    -0.3197   -13.106    -4.677    -4.372  0.1142  0.9935 -0.0000
     2 S(33)  Bbb    -0.0817    -3.350    -1.195    -1.118  0.0000  0.0000  1.0000
              Bcc     0.4014    16.457     5.872     5.489  0.9935 -0.1142  0.0000
 
              Baa    -0.5488   -73.648   -26.279   -24.566  0.9943  0.1062  0.0000
     3 C(13)  Bbb    -0.4030   -54.075   -19.295   -18.038  0.0000  0.0000  1.0000
              Bcc     0.9518   127.723    45.575    42.604 -0.1062  0.9943 -0.0000
 
              Baa    -0.0571   -30.473   -10.873   -10.165 -0.0000 -0.0000  1.0000
     4 H(1)   Bbb    -0.0108    -5.738    -2.048    -1.914  0.0164  0.9999  0.0000
              Bcc     0.0679    36.211    12.921    12.079  0.9999 -0.0164  0.0000
 
              Baa    -0.0158    -8.429    -3.008    -2.811 -0.0000  0.0000  1.0000
     5 H(1)   Bbb     0.0027     1.422     0.507     0.474  0.1272  0.9919 -0.0000
              Bcc     0.0131     7.007     2.500     2.337  0.9919 -0.1272  0.0000
 

 ---------------------------------------------------------------------------------

 No NMR shielding tensors so no spin-rotation constants.
 Leave Link  601 at Wed Aug  3 23:07:18 2016, MaxMem=    33554432 cpu:         1.3
 (Enter /home/proyectos/fulerenos/M3C-v2.0/M3C-deps_CCC/g09-AM64L-G09RevC.01/l701.exe)
 Compute integral second derivatives.
 ... and contract with generalized density number  0.
 Leave Link  701 at Wed Aug  3 23:07:19 2016, MaxMem=    33554432 cpu:         1.0
 (Enter /home/proyectos/fulerenos/M3C-v2.0/M3C-deps_CCC/g09-AM64L-G09RevC.01/l702.exe)
 L702 exits ... SP integral derivatives will be done elsewhere.
 Leave Link  702 at Wed Aug  3 23:07:19 2016, MaxMem=    33554432 cpu:         0.1
 (Enter /home/proyectos/fulerenos/M3C-v2.0/M3C-deps_CCC/g09-AM64L-G09RevC.01/l703.exe)
 Compute integral second derivatives, UseDBF=F ICtDFT=           0.
 Integral derivatives from FoFJK, PRISM(SPDF).
 Calling FoFJK, ICntrl=    100127 FMM=F ISym2X=1 I1Cent= 0 IOpClX= 1 NMat=1 NMatS=1 NMatT=0.
 FoFJK:  IHMeth= 1 ICntrl=  100127 DoSepK=F KAlg= 0 I1Cent=   0 FoldK=F
 IRaf=         0 NMat=   1 IRICut=       1 DoRegI=T DoRafI=F ISym2E= 1.
 FoFCou: FMM=F IPFlag=           0 FMFlag=      100000 FMFlg1=         800
         NFxFlg=           0 DoJE=F BraDBF=F KetDBF=F FulRan=T
         wScrn=  0.000000 ICntrl=  100127 IOpCl=  1 I1Cent=           0 NGrid=           0
         NMat0=    1 NMatS0=      1 NMatT0=    0 NMatD0=    1 NMtDS0=    0 NMtDT0=    0
 Petite list used in FoFCou.
 Leave Link  703 at Wed Aug  3 23:07:35 2016, MaxMem=    33554432 cpu:        66.0
 (Enter /home/proyectos/fulerenos/M3C-v2.0/M3C-deps_CCC/g09-AM64L-G09RevC.01/l716.exe)
 Dipole        = 5.36587438D-01 4.42238654D-01 2.54993372D-17
 Polarizability= 5.80959073D+01 1.81995511D+01 5.69523562D+01
                -6.54049386D-05 2.21736236D-04 3.19266630D+01
 Full mass-weighted force constant matrix:
 Low frequencies ---  -21.2575  -13.5457   -0.0037   -0.0025   -0.0019    1.2344
 Low frequencies ---  182.9235  218.8334  364.7297
 Diagonal vibrational polarizability:
        4.6443428      22.7837937      16.9245736
 Harmonic frequencies (cm**-1), IR intensities (KM/Mole), Raman scattering
 activities (A**4/AMU), depolarization ratios for plane and unpolarized
 incident light, reduced masses (AMU), force constants (mDyne/A),
 and normal coordinates:
                      1                      2                      3
                     A"                     A'                     A'
 Frequencies --    182.7862               218.8316               364.7297
 Red. masses --      1.1231                 2.5273                 3.7747
 Frc consts  --      0.0221                 0.0713                 0.2959
 IR Inten    --     17.7073                22.9203                 2.9065
  Atom  AN      X      Y      Z        X      Y      Z        X      Y      Z
     1  16     0.00   0.00  -0.02    -0.12  -0.09  -0.00    -0.05  -0.20   0.00
     2  16    -0.00   0.00  -0.04     0.10  -0.03  -0.00     0.04   0.21   0.00
     3   6    -0.00  -0.00   0.07     0.04   0.21   0.00     0.05   0.08   0.00
     4   1    -0.00  -0.00   0.06     0.09   0.94   0.00    -0.02  -0.92  -0.00
     5   1     0.00  -0.00   0.99    -0.05   0.13   0.00    -0.06  -0.23  -0.00
                      4                      5                      6
                     A'                     A"                     A'
 Frequencies --    379.3280               690.9033               850.9615
 Red. masses --      2.5035                 1.2329                 1.0758
 Frc consts  --      0.2122                 0.3467                 0.4590
 IR Inten    --     66.6430                47.2176                15.8259
  Atom  AN      X      Y      Z        X      Y      Z        X      Y      Z
     1  16    -0.02   0.05  -0.00    -0.00  -0.00  -0.00     0.02  -0.03   0.00
     2  16     0.02  -0.13  -0.00     0.00   0.00   0.02    -0.02   0.01  -0.00
     3   6     0.02   0.28   0.00    -0.00  -0.00  -0.14    -0.02  -0.02   0.00
     4   1    -0.06  -0.93   0.00    -0.00  -0.00   0.99    -0.02  -0.01  -0.00
     5   1     0.02   0.20   0.00     0.00   0.00   0.09     0.33   0.94  -0.00
                      7                      8                      9
                     A'                     A'                     A'
 Frequencies --   1176.4207              2628.8513              3279.3922
 Red. masses --      6.8425                 1.0390                 1.1100
 Frc consts  --      5.5795                 4.2307                 7.0333
 IR Inten    --     11.3434                45.7185               203.3626
  Atom  AN      X      Y      Z        X      Y      Z        X      Y      Z
     1  16    -0.01  -0.02   0.00    -0.03   0.01   0.00     0.00   0.00  -0.00
     2  16    -0.24  -0.01   0.00     0.00  -0.00  -0.00     0.00   0.00  -0.00
     3   6     0.60   0.06  -0.00     0.00   0.00   0.00    -0.10   0.00   0.00
     4   1     0.74   0.17   0.00     0.00  -0.00  -0.00     0.99  -0.07  -0.00
     5   1     0.01   0.04  -0.00     0.95  -0.31   0.00    -0.00   0.00   0.00

 -------------------
 - Thermochemistry -
 -------------------
 Temperature   298.150 Kelvin.  Pressure   1.00000 Atm.
 Atom     1 has atomic number 16 and mass  31.97207
 Atom     2 has atomic number 16 and mass  31.97207
 Atom     3 has atomic number  6 and mass  12.00000
 Atom     4 has atomic number  1 and mass   1.00783
 Atom     5 has atomic number  1 and mass   1.00783
 Molecular mass:    77.95979 amu.
 Principal axes and moments of inertia in atomic units:
                           1         2         3
     Eigenvalues --    63.60210 411.93260 475.53470
           X            0.57776   0.81620  -0.00000
           Y            0.81620  -0.57776  -0.00000
           Z            0.00000   0.00000   1.00000
 This molecule is an asymmetric top.
 Rotational symmetry number  1.
 Rotational temperatures (Kelvin)      1.36181     0.21026     0.18214
 Rotational constants (GHZ):          28.37550     4.38116     3.79518
 Zero-point vibrational energy      58450.8 (Joules/Mol)
                                   13.97007 (Kcal/Mol)
 Warning -- explicit consideration of   4 degrees of freedom as
           vibrations may cause significant error
 Vibrational temperatures:    262.99   314.85   524.76   545.77   994.05
          (Kelvin)           1224.34  1692.60  3782.33  4718.31
 
 Zero-point correction=                           0.022263 (Hartree/Particle)
 Thermal correction to Energy=                    0.027090
 Thermal correction to Enthalpy=                  0.028035
 Thermal correction to Gibbs Free Energy=        -0.005859
 Sum of electronic and zero-point Energies=           -835.341335
 Sum of electronic and thermal Energies=              -835.336507
 Sum of electronic and thermal Enthalpies=            -835.335563
 Sum of electronic and thermal Free Energies=         -835.369456
 
                     E (Thermal)             CV                S
                      KCal/Mol        Cal/Mol-Kelvin    Cal/Mol-Kelvin
 Total                   16.999             14.335             71.334
 Electronic               0.000              0.000              1.377
 Translational            0.889              2.981             38.976
 Rotational               0.889              2.981             24.036
 Vibrational             15.222              8.374              6.945
 Vibration     1          0.630              1.863              2.300
 Vibration     2          0.647              1.812              1.969
 Vibration     3          0.738              1.545              1.102
 Vibration     4          0.749              1.514              1.042
                       Q            Log10(Q)             Ln(Q)
 Total Bot       0.495220D+03          2.694799          6.205003
 Total V=0       0.860829D+13         12.934917         29.783746
 Vib (Bot)       0.229045D-09         -9.640079        -22.197102
 Vib (Bot)    1  0.109777D+01          0.040510          0.093277
 Vib (Bot)    2  0.904350D+00         -0.043663         -0.100538
 Vib (Bot)    3  0.500949D+00         -0.300207         -0.691251
 Vib (Bot)    4  0.476871D+00         -0.321599         -0.740509
 Vib (V=0)       0.398143D+01          0.600039          1.381641
 Vib (V=0)    1  0.170627D+01          0.232048          0.534310
 Vib (V=0)    2  0.153337D+01          0.185646          0.427467
 Vib (V=0)    3  0.120778D+01          0.081987          0.188782
 Vib (V=0)    4  0.119095D+01          0.075892          0.174748
 Electronic      0.200000D+01          0.301030          0.693147
 Translational   0.270559D+08          7.432261         17.113414
 Rotational      0.399564D+05          4.601586         10.595544
 
                                                              b3lyp opt
                                                             IR Spectrum
 
     3                         2                                                       1                                             
     2                         6                                                       1            8     6          33     21       
     7                         2                                                       7            5     9          76     18       
     9                         9                                                       6            1     1          95     93       
 
     X                         X                                                       X            X     X          XX     XX       
     X                         X                                                                    X     X          X      XX       
     X                         X                                                                          X          X               
     X                         X                                                                          X          X               
     X                                                                                                    X          X               
     X                                                                                                               X               
     X                                                                                                               X               
     X                                                                                                                               
     X                                                                                                                               
     X                                                                                                                               
     X                                                                                                                               
     X                                                                                                                               
     X                                                                                                                               
     X                                                                                                                               
     X                                                                                                                               
     X                                                                                                                               
     X                                                                                                                               
     X                                                                                                                               
     X                                                                                                                               
     X                                                                                                                               
 
 ***** Axes restored to original set *****
 -------------------------------------------------------------------
 Center     Atomic                   Forces (Hartrees/Bohr)
 Number     Number              X              Y              Z
 -------------------------------------------------------------------
      1       16           0.000001012    0.000030504    0.000028608
      2       16           0.000020787   -0.000208973   -0.000191899
      3        6           0.000010408    0.000229171    0.000215346
      4        1          -0.000014892   -0.000020544   -0.000021364
      5        1          -0.000017316   -0.000030158   -0.000030690
 -------------------------------------------------------------------
 Cartesian Forces:  Max     0.000229171 RMS     0.000111035
 Z-matrix is all fixed cartesians, so copy forces.
 Force constants in Cartesian coordinates: 
                1             2             3             4             5 
      1  0.148736D+00
      2  0.528799D-01  0.113873D+00
      3  0.711478D-01  0.113244D+00  0.117001D+00
      4 -0.821304D-01  0.148807D-01  0.185045D-02  0.105753D+00
      5 -0.107644D-01  0.161548D-02  0.432943D-03  0.279928D-01  0.251668D+00
      6 -0.220758D-01  0.421555D-02  0.126513D-03  0.403124D-01  0.230056D+00
      7  0.107647D-01  0.904026D-02  0.958102D-02 -0.336635D-01 -0.378734D-01
      8  0.211905D-01 -0.200656D-01 -0.183849D-01 -0.399555D-01 -0.256559D+00
      9  0.209169D-01 -0.201771D-01 -0.127492D-01 -0.394569D-01 -0.227327D+00
     10  0.180899D-02 -0.458237D-03  0.183989D-03  0.143146D-02  0.117265D-01
     11 -0.162528D-02 -0.122968D-03  0.182581D-02  0.619005D-03  0.757375D-02
     12 -0.904858D-03  0.199795D-02 -0.606331D-03 -0.761141D-03 -0.100742D-02
     13 -0.791794D-01 -0.763427D-01 -0.827632D-01  0.860925D-02  0.891841D-02
     14 -0.616807D-01 -0.952998D-01 -0.971174D-01 -0.353706D-02 -0.429783D-02
     15 -0.690840D-01 -0.992800D-01 -0.103772D+00 -0.194478D-02 -0.215435D-02
                6             7             8             9            10 
      6  0.230091D+00
      7 -0.375142D-01  0.537161D-01
      8 -0.227635D+00  0.860562D-01  0.473086D+00
      9 -0.236798D+00  0.821774D-01  0.415904D+00  0.441054D+00
     10  0.960183D-02 -0.268800D-01 -0.714201D-01 -0.670584D-01  0.239062D-01
     11 -0.264577D-02 -0.589420D-01 -0.194662D+00 -0.167921D+00  0.599490D-01
     12  0.945532D-02 -0.554167D-01 -0.169761D+00 -0.190552D+00  0.573196D-01
     13  0.967583D-02 -0.393734D-02  0.412897D-02  0.342099D-02 -0.266589D-03
     14 -0.399144D-02  0.171890D-02 -0.179849D-02 -0.478640D-03  0.202852D-03
     15 -0.287562D-02  0.117248D-02 -0.123099D-03 -0.955638D-03 -0.470760D-04
               11            12            13            14            15 
     11  0.186667D+00
     12  0.169479D+00  0.181063D+00
     13  0.000000D+00 -0.236968D-03  0.747741D-01
     14  0.544737D-03 -0.707994D-03  0.632960D-01  0.100851D+00
     15 -0.738021D-03  0.640182D-03  0.699034D-01  0.102295D+00  0.106963D+00
 Leave Link  716 at Wed Aug  3 23:07:35 2016, MaxMem=    33554432 cpu:         0.1
 (Enter /home/proyectos/fulerenos/M3C-v2.0/M3C-deps_CCC/g09-AM64L-G09RevC.01/l103.exe)

 GradGradGradGradGradGradGradGradGradGradGradGradGradGradGradGradGradGrad
 Berny optimization.
 Search for a local minimum.
 Step number   1 out of a maximum of    2
 All quantities printed in internal units (Hartrees-Bohrs-Radians)
 Second derivative matrix not updated -- analytic derivatives used.
 The second derivative matrix:
                          X1        Y1        Z1        X2        Y2
           X1           0.14874
           Y1           0.05288   0.11387
           Z1           0.07115   0.11324   0.11700
           X2          -0.08213   0.01488   0.00185   0.10575
           Y2          -0.01076   0.00162   0.00043   0.02799   0.25167
           Z2          -0.02208   0.00422   0.00013   0.04031   0.23006
           X3           0.01076   0.00904   0.00958  -0.03366  -0.03787
           Y3           0.02119  -0.02007  -0.01838  -0.03996  -0.25656
           Z3           0.02092  -0.02018  -0.01275  -0.03946  -0.22733
           X4           0.00181  -0.00046   0.00018   0.00143   0.01173
           Y4          -0.00163  -0.00012   0.00183   0.00062   0.00757
           Z4          -0.00090   0.00200  -0.00061  -0.00076  -0.00101
           X5          -0.07918  -0.07634  -0.08276   0.00861   0.00892
           Y5          -0.06168  -0.09530  -0.09712  -0.00354  -0.00430
           Z5          -0.06908  -0.09928  -0.10377  -0.00194  -0.00215
                          Z2        X3        Y3        Z3        X4
           Z2           0.23009
           X3          -0.03751   0.05372
           Y3          -0.22763   0.08606   0.47309
           Z3          -0.23680   0.08218   0.41590   0.44105
           X4           0.00960  -0.02688  -0.07142  -0.06706   0.02391
           Y4          -0.00265  -0.05894  -0.19466  -0.16792   0.05995
           Z4           0.00946  -0.05542  -0.16976  -0.19055   0.05732
           X5           0.00968  -0.00394   0.00413   0.00342  -0.00027
           Y5          -0.00399   0.00172  -0.00180  -0.00048   0.00020
           Z5          -0.00288   0.00117  -0.00012  -0.00096  -0.00005
                          Y4        Z4        X5        Y5        Z5
           Y4           0.18667
           Z4           0.16948   0.18106
           X5          -0.00000  -0.00024   0.07477
           Y5           0.00054  -0.00071   0.06330   0.10085
           Z5          -0.00074   0.00064   0.06990   0.10230   0.10696
 ITU=  0
     Eigenvalues ---    0.00235   0.00482   0.03088   0.05271   0.05486
     Eigenvalues ---    0.17696   0.33779   0.41299   1.32197
 Angle between quadratic step and forces=  52.54 degrees.
 ClnCor:  largest displacement from symmetrization is 2.09D-08 for atom     5.
 Linear search not attempted -- first point.
 ClnCor:  largest displacement from symmetrization is 3.51D-15 for atom     4.
 B after Tr=     0.000019   -0.000019   -0.000015
         Rot=    1.000000   -0.000002   -0.000010    0.000011 Ang=  -0.00 deg.
 Variable       Old X    -DE/DX   Delta X   Delta X   Delta X     New X
                                 (Linear)    (Quad)   (Total)
    X1       -2.23925   0.00000   0.00000  -0.00018  -0.00013  -2.23938
    Y1        0.23537   0.00003   0.00000   0.00011   0.00013   0.23550
    Z1        1.16775   0.00003   0.00000   0.00007   0.00010   1.16786
    X2        1.35635   0.00002   0.00000   0.00028   0.00028   1.35663
    Y2       -1.34968  -0.00021   0.00000  -0.00027  -0.00032  -1.35000
    Z2        0.21929  -0.00019   0.00000  -0.00021  -0.00025   0.21903
    X3        1.16327   0.00001   0.00000  -0.00027  -0.00036   1.16290
    Y3       -3.44689   0.00023   0.00000   0.00027   0.00023  -3.44666
    Z3       -1.76582   0.00022   0.00000   0.00021   0.00016  -1.76566
    X4        0.68135  -0.00001   0.00000   0.00039   0.00024   0.68159
    Y4       -4.85837  -0.00002   0.00000   0.00005   0.00003  -4.85834
    Z4       -3.15378  -0.00002   0.00000   0.00011   0.00006  -3.15372
    X5       -1.07244  -0.00002   0.00000  -0.00014  -0.00002  -1.07246
    Y5        1.80828  -0.00003   0.00000  -0.00007  -0.00007   1.80820
    Z5        2.80733  -0.00003   0.00000  -0.00008  -0.00007   2.80726
         Item               Value     Threshold  Converged?
 Maximum Force            0.000229     0.000450     YES
 RMS     Force            0.000111     0.000300     YES
 Maximum Displacement     0.000365     0.001800     YES
 RMS     Displacement     0.000195     0.001200     YES
 Predicted change in Energy=-1.058034D-07
 Optimization completed.
    -- Stationary point found.
 GradGradGradGradGradGradGradGradGradGradGradGradGradGradGradGradGradGrad

 Leave Link  103 at Wed Aug  3 23:07:35 2016, MaxMem=    33554432 cpu:         0.1
 (Enter /home/proyectos/fulerenos/M3C-v2.0/M3C-deps_CCC/g09-AM64L-G09RevC.01/l9999.exe)
 1\1\GINC-DEPAZ28\Freq\UB3LYP\6-311++G(3df,2p)\C1H2S2(1+,2)\NAGUIRRE\03
 -Aug-2016\0\\#p b3lyp/6-311++G(3df,2p) freq\\b3lyp opt\\1,2\S,-1.18495
 9,0.124551,0.617947\S,0.717751,-0.714222,0.116041\C,0.615575359,-1.824
 013659,-0.934433414\H,0.360556125,-2.5709402352,-1.6689091848\H,-0.567
 51043,0.9568981408,1.4855751562\\Version=EM64L-G09RevE.01\State=2-A'\H
 F=-835.3635977\S2=0.76977\S2-1=0.\S2A=0.750266\RMSD=3.311e-09\RMSF=1.1
 10e-04\ZeroPoint=0.0222627\Thermal=0.0270903\Dipole=0.3420656,-0.46699
 42,-0.3852384\DipoleDeriv=-0.0435562,0.296528,0.2422361,0.11878,0.0260
 775,-0.1351845,0.0764063,-0.1089685,0.0993616,0.8681968,-0.3714275,-0.
 2752026,-0.2482441,0.4370778,0.0123173,-0.1602826,-0.0058487,0.3555337
 ,-0.1019524,0.0473256,0.0222847,0.1702887,-0.0332247,-0.0490941,0.1370
 088,-0.0672316,0.0037947,0.238522,0.0118074,0.0117366,-0.0297885,0.369
 9207,0.1227576,-0.0270712,0.1288933,0.3498965,0.0387898,0.0157664,-0.0
 010548,-0.0110361,0.2001487,0.0492037,-0.0260613,0.0531555,0.1914135\P
 olar=50.6400428,-13.6949743,51.0898464,-10.0165255,15.8587279,45.24503
 72\PG=CS [SG(C1H2S2)]\NImag=0\\0.14873611,0.05287994,0.11387294,0.0711
 4778,0.11324356,0.11700060,-0.08213039,0.01488074,0.00185045,0.1057531
 4,-0.01076443,0.00161548,0.00043294,0.02799283,0.25166805,-0.02207583,
 0.00421555,0.00012651,0.04031236,0.23005620,0.23009133,0.01076473,0.00
 904026,0.00958102,-0.03366346,-0.03787335,-0.03751419,0.05371608,0.021
 19046,-0.02006564,-0.01838494,-0.03995551,-0.25655945,-0.22763453,0.08
 605620,0.47308575,0.02091691,-0.02017707,-0.01274921,-0.03945689,-0.22
 732737,-0.23679754,0.08217736,0.41590396,0.44105429,0.00180899,-0.0004
 5824,0.00018399,0.00143146,0.01172654,0.00960183,-0.02688001,-0.071420
 13,-0.06705838,0.02390616,-0.00162528,-0.00012297,0.00182581,0.0006190
 0,0.00757375,-0.00264577,-0.05894202,-0.19466217,-0.16792088,0.0599489
 7,0.18666665,-0.00090486,0.00199795,-0.00060633,-0.00076114,-0.0010074
 2,0.00945532,-0.05541667,-0.16976139,-0.19055190,0.05731964,0.16947886
 ,0.18106273,-0.07917945,-0.07634270,-0.08276325,0.00860925,0.00891841,
 0.00967583,-0.00393734,0.00412897,0.00342099,-0.00026659,-0.00000068,-
 0.00023697,0.07477412,-0.06168069,-0.09529982,-0.09711737,-0.00353706,
 -0.00429783,-0.00399144,0.00171890,-0.00179849,-0.00047864,0.00020285,
 0.00054474,-0.00070799,0.06329600,0.10085140,-0.06908401,-0.09927998,-
 0.10377157,-0.00194478,-0.00215435,-0.00287562,0.00117248,-0.00012310,
 -0.00095564,-0.00004708,-0.00073802,0.00064018,0.06990339,0.10229545,0
 .10696265\\-0.00000101,-0.00003050,-0.00002861,-0.00002079,0.00020897,
 0.00019190,-0.00001041,-0.00022917,-0.00021535,0.00001489,0.00002054,0
 .00002136,0.00001732,0.00003016,0.00003069\\\@


 ...THOSE SCIENCES ARE VAIN AND FULL OF ERRORS WHICH 
 ARE NOT BORN FROM EXPERIMENT, THE MOTHER OF CERTAINTY...

                          -- LEONARDO DA VINCI, 1452-1519
 Job cpu time:       0 days  0 hours  8 minutes 54.7 seconds.
 File lengths (MBytes):  RWF=     31 Int=      0 D2E=      0 Chk=      3 Scr=      1
 Normal termination of Gaussian 09 at Wed Aug  3 23:07:35 2016.
