 Entering Gaussian System, Link 0=/home/proyectos/fulerenos/M3C-v2.0/M3C-deps_CCC/g09-AM64L-G09RevC.01/g09
 Initial command:
 /home/proyectos/fulerenos/M3C-v2.0/M3C-deps_CCC/g09-AM64L-G09RevC.01/l1.exe "/scratch/naguirre/gaussian/Gau-25356.inp" -scrdir="/scratch/naguirre/gaussian/"
 Entering Link 1 = /home/proyectos/fulerenos/M3C-v2.0/M3C-deps_CCC/g09-AM64L-G09RevC.01/l1.exe PID=     25364.
  
 Copyright (c) 1988,1990,1992,1993,1995,1998,2003,2009,2015,
            Gaussian, Inc.  All Rights Reserved.
  
 This is part of the Gaussian(R) 09 program.  It is based on
 the Gaussian(R) 03 system (copyright 2003, Gaussian, Inc.),
 the Gaussian(R) 98 system (copyright 1998, Gaussian, Inc.),
 the Gaussian(R) 94 system (copyright 1995, Gaussian, Inc.),
 the Gaussian 92(TM) system (copyright 1992, Gaussian, Inc.),
 the Gaussian 90(TM) system (copyright 1990, Gaussian, Inc.),
 the Gaussian 88(TM) system (copyright 1988, Gaussian, Inc.),
 the Gaussian 86(TM) system (copyright 1986, Carnegie Mellon
 University), and the Gaussian 82(TM) system (copyright 1983,
 Carnegie Mellon University). Gaussian is a federally registered
 trademark of Gaussian, Inc.
  
 This software contains proprietary and confidential information,
 including trade secrets, belonging to Gaussian, Inc.
  
 This software is provided under written license and may be
 used, copied, transmitted, or stored only in accord with that
 written license.
  
 The following legend is applicable only to US Government
 contracts under FAR:
  
                    RESTRICTED RIGHTS LEGEND
  
 Use, reproduction and disclosure by the US Government is
 subject to restrictions as set forth in subparagraphs (a)
 and (c) of the Commercial Computer Software - Restricted
 Rights clause in FAR 52.227-19.
  
 Gaussian, Inc.
 340 Quinnipiac St., Bldg. 40, Wallingford CT 06492
  
  
 ---------------------------------------------------------------
 Warning -- This program may not be used in any manner that
 competes with the business of Gaussian, Inc. or will provide
 assistance to any competitor of Gaussian, Inc.  The licensee
 of this program is prohibited from giving any competitor of
 Gaussian, Inc. access to this program.  By using this program,
 the user acknowledges that Gaussian, Inc. is engaged in the
 business of creating and licensing software in the field of
 computational chemistry and represents and warrants to the
 licensee that it is not a competitor of Gaussian, Inc. and that
 it will not use this program in any manner prohibited above.
 ---------------------------------------------------------------
  

 Cite this work as:
 Gaussian 09, Revision E.01,
 M. J. Frisch, G. W. Trucks, H. B. Schlegel, G. E. Scuseria, 
 M. A. Robb, J. R. Cheeseman, G. Scalmani, V. Barone, B. Mennucci, 
 G. A. Petersson, H. Nakatsuji, M. Caricato, X. Li, H. P. Hratchian, 
 A. F. Izmaylov, J. Bloino, G. Zheng, J. L. Sonnenberg, M. Hada, 
 M. Ehara, K. Toyota, R. Fukuda, J. Hasegawa, M. Ishida, T. Nakajima, 
 Y. Honda, O. Kitao, H. Nakai, T. Vreven, J. A. Montgomery, Jr., 
 J. E. Peralta, F. Ogliaro, M. Bearpark, J. J. Heyd, E. Brothers, 
 K. N. Kudin, V. N. Staroverov, T. Keith, R. Kobayashi, J. Normand, 
 K. Raghavachari, A. Rendell, J. C. Burant, S. S. Iyengar, J. Tomasi, 
 M. Cossi, N. Rega, J. M. Millam, M. Klene, J. E. Knox, J. B. Cross, 
 V. Bakken, C. Adamo, J. Jaramillo, R. Gomperts, R. E. Stratmann, 
 O. Yazyev, A. J. Austin, R. Cammi, C. Pomelli, J. W. Ochterski, 
 R. L. Martin, K. Morokuma, V. G. Zakrzewski, G. A. Voth, 
 P. Salvador, J. J. Dannenberg, S. Dapprich, A. D. Daniels, 
 O. Farkas, J. B. Foresman, J. V. Ortiz, J. Cioslowski, 
 and D. J. Fox, Gaussian, Inc., Wallingford CT, 2013.
 
 ******************************************
 Gaussian 09:  EM64L-G09RevE.01 30-Nov-2015
                 3-Aug-2016 
 ******************************************
 %NProcShared=4
 Will use up to    4 processors via shared memory.
 ------------------------------
 #p b3lyp/6-311++G(3df,2p) freq
 ------------------------------
 1/10=4,30=1,38=1/1,3;
 2/12=2,17=6,18=5,40=1/2;
 3/5=4,6=6,7=1216,11=2,16=1,25=1,30=1,71=2,74=-5,140=1/1,2,3;
 4//1;
 5/5=2,38=5,98=1/2;
 8/6=4,10=90,11=11/1;
 11/6=1,8=1,9=11,15=111,16=1/1,2,10;
 10/6=1/2;
 6/7=2,8=2,9=2,10=2,18=1,28=1/1;
 7/8=1,10=1,25=1/1,2,3,16;
 1/10=4,30=1/3;
 99//99;
 Leave Link    1 at Wed Aug  3 23:03:14 2016, MaxMem=           0 cpu:         0.3
 (Enter /home/proyectos/fulerenos/M3C-v2.0/M3C-deps_CCC/g09-AM64L-G09RevC.01/l101.exe)
 ---------
 b3lyp opt
 ---------
 Symbolic Z-matrix:
 Charge =  0 Multiplicity = 1
 S                    -1.31937  -0.05743   0.74639 
 S                     0.75159   0.25098  -1.14778 
 C                    -0.19095   0.98871   0.04615 
 H                    -1.86209   0.82587   1.60715 
 H                     1.49841   1.32632  -1.46648 
 
 NAtoms=      5 NQM=        5 NQMF=       0 NMMI=      0 NMMIF=      0
                NMic=       0 NMicF=      0.
                    Isotopes and Nuclear Properties:
 (Nuclear quadrupole moments (NQMom) in fm**2, nuclear magnetic moments (NMagM)
  in nuclear magnetons)

  Atom         1           2           3           4           5
 IAtWgt=          32          32          12           1           1
 AtmWgt=  31.9720718  31.9720718  12.0000000   1.0078250   1.0078250
 NucSpn=           0           0           0           1           1
 AtZEff=   0.0000000   0.0000000   0.0000000   0.0000000   0.0000000
 NQMom=    0.0000000   0.0000000   0.0000000   0.0000000   0.0000000
 NMagM=    0.0000000   0.0000000   0.0000000   2.7928460   2.7928460
 AtZNuc=  16.0000000  16.0000000   6.0000000   1.0000000   1.0000000
 Leave Link  101 at Wed Aug  3 23:03:14 2016, MaxMem=    33554432 cpu:         0.2
 (Enter /home/proyectos/fulerenos/M3C-v2.0/M3C-deps_CCC/g09-AM64L-G09RevC.01/l103.exe)

 GradGradGradGradGradGradGradGradGradGradGradGradGradGradGradGradGradGrad
 Berny optimization.
 Initialization pass.
 Trust Radius=3.00D-01 FncErr=1.00D-07 GrdErr=1.00D-07
 Number of steps in this run=      2 maximum allowed number of steps=      2.
 GradGradGradGradGradGradGradGradGradGradGradGradGradGradGradGradGradGrad

 Leave Link  103 at Wed Aug  3 23:03:14 2016, MaxMem=    33554432 cpu:         0.1
 (Enter /home/proyectos/fulerenos/M3C-v2.0/M3C-deps_CCC/g09-AM64L-G09RevC.01/l202.exe)
                          Input orientation:                          
 ---------------------------------------------------------------------
 Center     Atomic      Atomic             Coordinates (Angstroms)
 Number     Number       Type             X           Y           Z
 ---------------------------------------------------------------------
      1         16           0       -1.319372   -0.057431    0.746394
      2         16           0        0.751590    0.250977   -1.147783
      3          6           0       -0.190946    0.988709    0.046149
      4          1           0       -1.862086    0.825874    1.607148
      5          1           0        1.498406    1.326319   -1.466481
 ---------------------------------------------------------------------
                    Distance matrix (angstroms):
                    1          2          3          4          5
     1  S    0.000000
     2  S    2.823456   0.000000
     3  C    1.690590   1.690590   0.000000
     4  H    1.347465   3.840762   2.292584   0.000000
     5  H    3.840762   1.347465   2.292584   4.581543   0.000000
 Stoichiometry    CH2S2
 Framework group  C2V[C2(C),SGV(H2S2)]
 Deg. of freedom     4
 Full point group                 C2V     NOp   4
 Largest Abelian subgroup         C2V     NOp   4
 Largest concise Abelian subgroup C2      NOp   2
                         Standard orientation:                         
 ---------------------------------------------------------------------
 Center     Atomic      Atomic             Coordinates (Angstroms)
 Number     Number       Type             X           Y           Z
 ---------------------------------------------------------------------
      1         16           0        0.000000    1.411728   -0.190580
      2         16           0       -0.000000   -1.411728   -0.190580
      3          6           0       -0.000000   -0.000000    0.739538
      4          1           0        0.000000    2.290772    0.830667
      5          1           0       -0.000000   -2.290772    0.830667
 ---------------------------------------------------------------------
 Rotational constants (GHZ):     49.3442193      3.6617275      3.4087701
 Leave Link  202 at Wed Aug  3 23:03:14 2016, MaxMem=    33554432 cpu:         0.1
 (Enter /home/proyectos/fulerenos/M3C-v2.0/M3C-deps_CCC/g09-AM64L-G09RevC.01/l301.exe)
 Standard basis: 6-311++G(3df,2p) (5D, 7F)
 Ernie: Thresh=  0.10000D-02 Tol=  0.10000D-05 Strict=F.
 There are    66 symmetry adapted cartesian basis functions of A1  symmetry.
 There are    22 symmetry adapted cartesian basis functions of A2  symmetry.
 There are    28 symmetry adapted cartesian basis functions of B1  symmetry.
 There are    55 symmetry adapted cartesian basis functions of B2  symmetry.
 There are    57 symmetry adapted basis functions of A1  symmetry.
 There are    21 symmetry adapted basis functions of A2  symmetry.
 There are    26 symmetry adapted basis functions of B1  symmetry.
 There are    49 symmetry adapted basis functions of B2  symmetry.
   153 basis functions,   226 primitive gaussians,   171 cartesian basis functions
    20 alpha electrons       20 beta electrons
       nuclear repulsion energy       127.9398709661 Hartrees.
 IExCor=  402 DFT=T Ex+Corr=B3LYP ExCW=0 ScaHFX=  0.200000
 ScaDFX=  0.800000  0.720000  1.000000  0.810000 ScalE2=  1.000000  1.000000
 IRadAn=      0 IRanWt=     -1 IRanGd=            0 ICorTp=0 IEmpDi=  4
 NAtoms=    5 NActive=    5 NUniq=    3 SFac= 2.78D+00 NAtFMM=   60 NAOKFM=F Big=F
 Integral buffers will be    131072 words long.
 Raffenetti 2 integral format.
 Two-electron integral symmetry is turned on.
 Leave Link  301 at Wed Aug  3 23:03:14 2016, MaxMem=    33554432 cpu:         0.2
 (Enter /home/proyectos/fulerenos/M3C-v2.0/M3C-deps_CCC/g09-AM64L-G09RevC.01/l302.exe)
 NPDir=0 NMtPBC=     1 NCelOv=     1 NCel=       1 NClECP=     1 NCelD=      1
         NCelK=      1 NCelE2=     1 NClLst=     1 CellRange=     0.0.
 One-electron integrals computed using PRISM.
 One-electron integral symmetry used in STVInt
 NBasis=   153 RedAO= T EigKep=  1.91D-04  NBF=    57    21    26    49
 NBsUse=   153 1.00D-06 EigRej= -1.00D+00 NBFU=    57    21    26    49
 Precomputing XC quadrature grid using
 IXCGrd= 4 IRadAn=           0 IRanWt=          -1 IRanGd=           0 AccXCQ= 0.00D+00.
 Generated NRdTot=       0 NPtTot=           0 NUsed=           0 NTot=          32
 NSgBfM=   171   171   171   171   171 MxSgAt=     5 MxSgA2=     5.
 Leave Link  302 at Wed Aug  3 23:03:14 2016, MaxMem=    33554432 cpu:         0.8
 (Enter /home/proyectos/fulerenos/M3C-v2.0/M3C-deps_CCC/g09-AM64L-G09RevC.01/l303.exe)
 DipDrv:  MaxL=1.
 Leave Link  303 at Wed Aug  3 23:03:14 2016, MaxMem=    33554432 cpu:         0.1
 (Enter /home/proyectos/fulerenos/M3C-v2.0/M3C-deps_CCC/g09-AM64L-G09RevC.01/l401.exe)
 ExpMin= 3.60D-02 ExpMax= 9.34D+04 ExpMxC= 3.17D+03 IAcc=3 IRadAn=         5 AccDes= 0.00D+00
 Harris functional with IExCor=  402 and IRadAn=       5 diagonalized for initial guess.
 HarFok:  IExCor=  402 AccDes= 0.00D+00 IRadAn=         5 IDoV= 1 UseB2=F ITyADJ=14
 ICtDFT=  3500011 ScaDFX=  1.000000  1.000000  1.000000  1.000000
 FoFCou: FMM=F IPFlag=           0 FMFlag=      100000 FMFlg1=           0
         NFxFlg=           0 DoJE=T BraDBF=F KetDBF=T FulRan=T
         wScrn=  0.000000 ICntrl=     500 IOpCl=  0 I1Cent=   200000004 NGrid=           0
         NMat0=    1 NMatS0=      1 NMatT0=    0 NMatD0=    1 NMtDS0=    0 NMtDT0=    0
 Petite list used in FoFCou.
 Harris En= -835.590192932371    
 JPrj=0 DoOrth=F DoCkMO=F.
 Initial guess orbital symmetries:
       Occupied  (B2) (A1) (A1) (B2) (A1) (A1) (B2) (B2) (A1) (A2)
                 (B1) (A1) (B2) (A1) (A1) (B2) (B2) (B1) (A2) (A1)
       Virtual   (B1) (A1) (A1) (B2) (B2) (A1) (A1) (B1) (A2) (A1)
                 (B2) (B2) (A1) (B1) (B2) (A1) (B2) (B1) (B2) (A1)
                 (A2) (A1) (B2) (A1) (A2) (B1) (A1) (B2) (B2) (B1)
                 (A2) (A1) (A1) (B2) (B2) (B1) (A1) (A1) (B2) (A1)
                 (B2) (A2) (B1) (A1) (A1) (B1) (B2) (A2) (A1) (B2)
                 (A1) (A2) (B2) (B1) (B1) (A2) (B2) (A1) (B2) (A1)
                 (B2) (A1) (B2) (A1) (B1) (A1) (A2) (B1) (A1) (A2)
                 (B2) (B1) (B2) (A2) (A1) (B1) (A2) (A1) (B2) (B2)
                 (A1) (B1) (B2) (A2) (B2) (A1) (A1) (B2) (A1) (A1)
                 (B2) (B1) (A1) (B1) (A1) (B2) (B1) (A2) (B2) (B2)
                 (A1) (B1) (A2) (B2) (A1) (B2) (A1) (B1) (A2) (A1)
                 (A2) (B1) (B2) (A1) (B2) (A1) (B2) (B1) (A1) (A2)
                 (A1) (B2) (A1) (B2) (B1) (A2) (B2) (A1) (A1) (B2)
                 (A1) (A1) (B2)
 The electronic state of the initial guess is 1-A1.
 Leave Link  401 at Wed Aug  3 23:03:15 2016, MaxMem=    33554432 cpu:         1.7
 (Enter /home/proyectos/fulerenos/M3C-v2.0/M3C-deps_CCC/g09-AM64L-G09RevC.01/l502.exe)
 Closed shell SCF:
 Using DIIS extrapolation, IDIIS=  1040.
 Integral symmetry usage will be decided dynamically.
 IVT=      108865 IEndB=      108865 NGot=    33554432 MDV=    33491620
 LenX=    33491620 LenY=    33461938
 Requested convergence on RMS density matrix=1.00D-08 within 128 cycles.
 Requested convergence on MAX density matrix=1.00D-06.
 Requested convergence on             energy=1.00D-06.
 No special actions if energy rises.
 Fock matrices will be formed incrementally for  20 cycles.

 Cycle   1  Pass 1  IDiag  1:
 FoFJK:  IHMeth= 1 ICntrl=       0 DoSepK=F KAlg= 0 I1Cent=   0 FoldK=F
 IRaf= 950000000 NMat=   1 IRICut=       1 DoRegI=T DoRafI=F ISym2E= 1.
 FoFCou: FMM=F IPFlag=           0 FMFlag=      100000 FMFlg1=           0
         NFxFlg=           0 DoJE=F BraDBF=F KetDBF=F FulRan=T
         wScrn=  0.000000 ICntrl=       0 IOpCl=  0 I1Cent=           0 NGrid=           0
         NMat0=    1 NMatS0=      1 NMatT0=    0 NMatD0=    1 NMtDS0=    0 NMtDT0=    0
 Petite list used in FoFCou.
 E= -835.618194086836    
 DIIS: error= 4.27D-02 at cycle   1 NSaved=   1.
 NSaved= 1 IEnMin= 1 EnMin= -835.618194086836     IErMin= 1 ErrMin= 4.27D-02
 ErrMax= 4.27D-02  0.00D+00 EMaxC= 1.00D-01 BMatC= 9.96D-02 BMatP= 9.96D-02
 IDIUse=3 WtCom= 5.73D-01 WtEn= 4.27D-01
 Coeff-Com:  0.100D+01
 Coeff-En:   0.100D+01
 Coeff:      0.100D+01
 Gap=     0.114 Goal=   None    Shift=    0.000
 GapD=    0.114 DampG=1.000 DampE=0.500 DampFc=0.5000 IDamp=-1.
 Damping current iteration by 5.00D-01
 RMSDP=5.18D-03 MaxDP=2.46D-01              OVMax= 3.16D-01

 Cycle   2  Pass 1  IDiag  1:
 RMSU=  2.59D-03    CP:  9.96D-01
 E= -835.616250873012     Delta-E=        0.001943213824 Rises=F Damp=T
 DIIS: error= 1.56D-02 at cycle   2 NSaved=   2.
 NSaved= 2 IEnMin= 1 EnMin= -835.618194086836     IErMin= 2 ErrMin= 1.56D-02
 ErrMax= 1.56D-02  0.00D+00 EMaxC= 1.00D-01 BMatC= 2.46D-02 BMatP= 9.96D-02
 IDIUse=3 WtCom= 8.44D-01 WtEn= 1.56D-01
 Coeff-Com:  0.267D+00 0.733D+00
 Coeff-En:   0.509D+00 0.491D+00
 Coeff:      0.304D+00 0.696D+00
 Gap=     0.151 Goal=   None    Shift=    0.000
 RMSDP=1.83D-03 MaxDP=1.20D-01 DE= 1.94D-03 OVMax= 2.37D-01

 Cycle   3  Pass 1  IDiag  1:
 RMSU=  8.90D-04    CP:  9.98D-01  3.81D-01
 E= -835.689825675617     Delta-E=       -0.073574802605 Rises=F Damp=F
 DIIS: error= 7.44D-03 at cycle   3 NSaved=   3.
 NSaved= 3 IEnMin= 3 EnMin= -835.689825675617     IErMin= 3 ErrMin= 7.44D-03
 ErrMax= 7.44D-03  0.00D+00 EMaxC= 1.00D-01 BMatC= 2.40D-03 BMatP= 2.46D-02
 IDIUse=3 WtCom= 9.26D-01 WtEn= 7.44D-02
 Coeff-Com: -0.238D-01 0.205D+00 0.818D+00
 Coeff-En:   0.000D+00 0.000D+00 0.100D+01
 Coeff:     -0.221D-01 0.190D+00 0.832D+00
 Gap=     0.151 Goal=   None    Shift=    0.000
 RMSDP=3.53D-04 MaxDP=7.53D-03 DE=-7.36D-02 OVMax= 3.02D-02

 Cycle   4  Pass 1  IDiag  1:
 RMSU=  2.46D-04    CP:  9.97D-01  4.74D-01  9.18D-01
 E= -835.692021916929     Delta-E=       -0.002196241312 Rises=F Damp=F
 DIIS: error= 1.82D-03 at cycle   4 NSaved=   4.
 NSaved= 4 IEnMin= 4 EnMin= -835.692021916929     IErMin= 4 ErrMin= 1.82D-03
 ErrMax= 1.82D-03  0.00D+00 EMaxC= 1.00D-01 BMatC= 3.64D-04 BMatP= 2.40D-03
 IDIUse=3 WtCom= 9.82D-01 WtEn= 1.82D-02
 Coeff-Com: -0.105D-01 0.347D-01 0.345D+00 0.631D+00
 Coeff-En:   0.000D+00 0.000D+00 0.101D+00 0.899D+00
 Coeff:     -0.103D-01 0.341D-01 0.340D+00 0.636D+00
 Gap=     0.151 Goal=   None    Shift=    0.000
 RMSDP=1.55D-04 MaxDP=6.34D-03 DE=-2.20D-03 OVMax= 6.61D-03

 Cycle   5  Pass 1  IDiag  1:
 RMSU=  9.12D-05    CP:  9.97D-01  4.34D-01  9.69D-01  7.68D-01
 E= -835.692342208325     Delta-E=       -0.000320291397 Rises=F Damp=F
 DIIS: error= 4.59D-04 at cycle   5 NSaved=   5.
 NSaved= 5 IEnMin= 5 EnMin= -835.692342208325     IErMin= 5 ErrMin= 4.59D-04
 ErrMax= 4.59D-04  0.00D+00 EMaxC= 1.00D-01 BMatC= 2.53D-05 BMatP= 3.64D-04
 IDIUse=3 WtCom= 9.95D-01 WtEn= 4.59D-03
 Coeff-Com: -0.213D-03-0.359D-02 0.852D-01 0.284D+00 0.634D+00
 Coeff-En:   0.000D+00 0.000D+00 0.000D+00 0.000D+00 0.100D+01
 Coeff:     -0.212D-03-0.357D-02 0.848D-01 0.283D+00 0.636D+00
 Gap=     0.151 Goal=   None    Shift=    0.000
 RMSDP=3.49D-05 MaxDP=9.04D-04 DE=-3.20D-04 OVMax= 1.95D-03

 Cycle   6  Pass 1  IDiag  1:
 RMSU=  1.83D-05    CP:  9.97D-01  4.36D-01  9.72D-01  7.94D-01  6.86D-01
 E= -835.692370186775     Delta-E=       -0.000027978450 Rises=F Damp=F
 DIIS: error= 1.08D-04 at cycle   6 NSaved=   6.
 NSaved= 6 IEnMin= 6 EnMin= -835.692370186775     IErMin= 6 ErrMin= 1.08D-04
 ErrMax= 1.08D-04  0.00D+00 EMaxC= 1.00D-01 BMatC= 9.49D-07 BMatP= 2.53D-05
 IDIUse=3 WtCom= 9.99D-01 WtEn= 1.08D-03
 Coeff-Com:  0.653D-03-0.319D-02 0.169D-01 0.559D-01 0.194D+00 0.736D+00
 Coeff-En:   0.000D+00 0.000D+00 0.000D+00 0.000D+00 0.000D+00 0.100D+01
 Coeff:      0.652D-03-0.318D-02 0.169D-01 0.559D-01 0.194D+00 0.736D+00
 Gap=     0.152 Goal=   None    Shift=    0.000
 RMSDP=1.22D-05 MaxDP=4.99D-04 DE=-2.80D-05 OVMax= 5.97D-04

 Cycle   7  Pass 1  IDiag  1:
 RMSU=  4.07D-06    CP:  9.97D-01  4.32D-01  9.73D-01  7.98D-01  7.59D-01
                    CP:  9.90D-01
 E= -835.692371318510     Delta-E=       -0.000001131735 Rises=F Damp=F
 DIIS: error= 9.91D-06 at cycle   7 NSaved=   7.
 NSaved= 7 IEnMin= 7 EnMin= -835.692371318510     IErMin= 7 ErrMin= 9.91D-06
 ErrMax= 9.91D-06  0.00D+00 EMaxC= 1.00D-01 BMatC= 2.18D-08 BMatP= 9.49D-07
 IDIUse=1 WtCom= 1.00D+00 WtEn= 0.00D+00
 Coeff-Com:  0.206D-03-0.364D-03-0.463D-02-0.158D-01-0.216D-01 0.994D-01
 Coeff-Com:  0.943D+00
 Coeff:      0.206D-03-0.364D-03-0.463D-02-0.158D-01-0.216D-01 0.994D-01
 Coeff:      0.943D+00
 Gap=     0.152 Goal=   None    Shift=    0.000
 RMSDP=2.45D-06 MaxDP=8.13D-05 DE=-1.13D-06 OVMax= 1.53D-04

 Cycle   8  Pass 1  IDiag  1:
 RMSU=  6.34D-07    CP:  9.97D-01  4.32D-01  9.74D-01  7.97D-01  7.65D-01
                    CP:  1.06D+00  1.09D+00
 E= -835.692371347621     Delta-E=       -0.000000029111 Rises=F Damp=F
 DIIS: error= 2.40D-06 at cycle   8 NSaved=   8.
 NSaved= 8 IEnMin= 8 EnMin= -835.692371347621     IErMin= 8 ErrMin= 2.40D-06
 ErrMax= 2.40D-06  0.00D+00 EMaxC= 1.00D-01 BMatC= 4.66D-10 BMatP= 2.18D-08
 IDIUse=1 WtCom= 1.00D+00 WtEn= 0.00D+00
 Coeff-Com: -0.789D-05 0.470D-04-0.834D-03-0.265D-02-0.723D-02-0.316D-02
 Coeff-Com:  0.128D+00 0.886D+00
 Coeff:     -0.789D-05 0.470D-04-0.834D-03-0.265D-02-0.723D-02-0.316D-02
 Coeff:      0.128D+00 0.886D+00
 Gap=     0.152 Goal=   None    Shift=    0.000
 RMSDP=2.16D-07 MaxDP=5.36D-06 DE=-2.91D-08 OVMax= 1.60D-05

 Cycle   9  Pass 1  IDiag  1:
 RMSU=  1.52D-07    CP:  9.97D-01  4.31D-01  9.74D-01  7.97D-01  7.66D-01
                    CP:  1.06D+00  1.10D+00  1.10D+00
 E= -835.692371348221     Delta-E=       -0.000000000600 Rises=F Damp=F
 DIIS: error= 3.88D-07 at cycle   9 NSaved=   9.
 NSaved= 9 IEnMin= 9 EnMin= -835.692371348221     IErMin= 9 ErrMin= 3.88D-07
 ErrMax= 3.88D-07  0.00D+00 EMaxC= 1.00D-01 BMatC= 3.66D-11 BMatP= 4.66D-10
 IDIUse=1 WtCom= 1.00D+00 WtEn= 0.00D+00
 Coeff-Com: -0.500D-05 0.147D-04-0.598D-04 0.105D-03-0.621D-03-0.417D-02
 Coeff-Com: -0.971D-02 0.232D+00 0.782D+00
 Coeff:     -0.500D-05 0.147D-04-0.598D-04 0.105D-03-0.621D-03-0.417D-02
 Coeff:     -0.971D-02 0.232D+00 0.782D+00
 Gap=     0.152 Goal=   None    Shift=    0.000
 RMSDP=6.30D-08 MaxDP=2.06D-06 DE=-6.00D-10 OVMax= 3.43D-06

 Cycle  10  Pass 1  IDiag  1:
 RMSU=  3.78D-08    CP:  9.97D-01  4.31D-01  9.74D-01  7.97D-01  7.66D-01
                    CP:  1.06D+00  1.10D+00  1.16D+00  9.27D-01
 E= -835.692371348264     Delta-E=       -0.000000000042 Rises=F Damp=F
 DIIS: error= 7.88D-08 at cycle  10 NSaved=  10.
 NSaved=10 IEnMin=10 EnMin= -835.692371348264     IErMin=10 ErrMin= 7.88D-08
 ErrMax= 7.88D-08  0.00D+00 EMaxC= 1.00D-01 BMatC= 1.62D-12 BMatP= 3.66D-11
 IDIUse=1 WtCom= 1.00D+00 WtEn= 0.00D+00
 Coeff-Com: -0.138D-05 0.257D-05 0.384D-04 0.156D-03 0.153D-03-0.103D-02
 Coeff-Com: -0.664D-02-0.573D-02 0.174D+00 0.839D+00
 Coeff:     -0.138D-05 0.257D-05 0.384D-04 0.156D-03 0.153D-03-0.103D-02
 Coeff:     -0.664D-02-0.573D-02 0.174D+00 0.839D+00
 Gap=     0.152 Goal=   None    Shift=    0.000
 RMSDP=1.34D-08 MaxDP=3.68D-07 DE=-4.24D-11 OVMax= 8.79D-07

 Cycle  11  Pass 1  IDiag  1:
 RMSU=  4.26D-09    CP:  9.97D-01  4.31D-01  9.74D-01  7.97D-01  7.67D-01
                    CP:  1.06D+00  1.11D+00  1.17D+00  9.67D-01  9.48D-01
 E= -835.692371348270     Delta-E=       -0.000000000006 Rises=F Damp=F
 DIIS: error= 1.30D-08 at cycle  11 NSaved=  11.
 NSaved=11 IEnMin=11 EnMin= -835.692371348270     IErMin=11 ErrMin= 1.30D-08
 ErrMax= 1.30D-08  0.00D+00 EMaxC= 1.00D-01 BMatC= 2.92D-14 BMatP= 1.62D-12
 IDIUse=1 WtCom= 1.00D+00 WtEn= 0.00D+00
 Coeff-Com: -0.118D-07-0.106D-06 0.472D-05 0.188D-04 0.203D-04-0.257D-04
 Coeff-Com: -0.845D-03-0.687D-02 0.785D-02 0.900D-01 0.910D+00
 Coeff:     -0.118D-07-0.106D-06 0.472D-05 0.188D-04 0.203D-04-0.257D-04
 Coeff:     -0.845D-03-0.687D-02 0.785D-02 0.900D-01 0.910D+00
 Gap=     0.152 Goal=   None    Shift=    0.000
 RMSDP=2.27D-09 MaxDP=6.03D-08 DE=-5.80D-12 OVMax= 1.62D-07

 SCF Done:  E(RB3LYP) =  -835.692371348     A.U. after   11 cycles
            NFock= 11  Conv=0.23D-08     -V/T= 2.0016
 KE= 8.343765704480D+02 PE=-2.240881600962D+03 EE= 4.428727881998D+02
 Leave Link  502 at Wed Aug  3 23:03:27 2016, MaxMem=    33554432 cpu:        47.5
 (Enter /home/proyectos/fulerenos/M3C-v2.0/M3C-deps_CCC/g09-AM64L-G09RevC.01/l801.exe)
 DoSCS=F DFT=T ScalE2(SS,OS)=  1.000000  1.000000
 Range of M.O.s used for correlation:     1   153
 NBasis=   153 NAE=    20 NBE=    20 NFC=     0 NFV=     0
 NROrb=    153 NOA=    20 NOB=    20 NVA=   133 NVB=   133

 **** Warning!!: The largest alpha MO coefficient is  0.39467954D+02

 Leave Link  801 at Wed Aug  3 23:03:27 2016, MaxMem=    33554432 cpu:         0.1
 (Enter /home/proyectos/fulerenos/M3C-v2.0/M3C-deps_CCC/g09-AM64L-G09RevC.01/l1101.exe)
 Using compressed storage, NAtomX=     5.
 Will process      6 centers per pass.
 Leave Link 1101 at Wed Aug  3 23:03:27 2016, MaxMem=    33554432 cpu:         1.6
 (Enter /home/proyectos/fulerenos/M3C-v2.0/M3C-deps_CCC/g09-AM64L-G09RevC.01/l1102.exe)
 Symmetrizing basis deriv contribution to polar:
 IMax=3 JMax=2 DiffMx= 0.00D+00
 Leave Link 1102 at Wed Aug  3 23:03:28 2016, MaxMem=    33554432 cpu:         0.1
 (Enter /home/proyectos/fulerenos/M3C-v2.0/M3C-deps_CCC/g09-AM64L-G09RevC.01/l1110.exe)
 Forming Gx(P) for the SCF density, NAtomX=     5.
 Integral derivatives from FoFJK, PRISM(SPDF).
 Do as many integral derivatives as possible in FoFJK.
 G2DrvN: MDV=      33554288.
 G2DrvN: will do     6 centers at a time, making    1 passes.
 Calling FoFCou, ICntrl=  3107 FMM=F I1Cent=   0 AccDes= 0.00D+00.
 FoFJK:  IHMeth= 1 ICntrl=    3107 DoSepK=F KAlg= 0 I1Cent=   0 FoldK=F
 IRaf=         0 NMat=   1 IRICut=       1 DoRegI=T DoRafI=F ISym2E= 1.
 FoFCou: FMM=F IPFlag=           0 FMFlag=      100000 FMFlg1=           0
         NFxFlg=           0 DoJE=F BraDBF=F KetDBF=F FulRan=T
         wScrn=  0.000000 ICntrl=    3107 IOpCl=  0 I1Cent=           0 NGrid=           0
         NMat0=    1 NMatS0=      1 NMatT0=    0 NMatD0=    1 NMtDS0=    0 NMtDT0=    0
 Petite list used in FoFCou.
 End of G2Drv F.D. properties file   721 does not exist.
 End of G2Drv F.D. properties file   722 does not exist.
 End of G2Drv F.D. properties file   788 does not exist.
 Leave Link 1110 at Wed Aug  3 23:03:35 2016, MaxMem=    33554432 cpu:        29.2
 (Enter /home/proyectos/fulerenos/M3C-v2.0/M3C-deps_CCC/g09-AM64L-G09RevC.01/l1002.exe)
 Minotr:  Closed shell wavefunction.
          IDoAtm=11111
          Direct CPHF calculation.
          Differentiating once with respect to electric field.
                with respect to dipole field.
          Differentiating once with respect to nuclear coordinates.
          Using symmetry in CPHF.
          Requested convergence is 1.0D-08 RMS, and 1.0D-07 maximum.
          Secondary convergence is 1.0D-12 RMS, and 1.0D-12 maximum.
          NewPWx=T KeepS1=F KeepF1=F KeepIn=T MapXYZ=F SortEE=F KeepMc=T.
          MDV=      33554225 using IRadAn=       2.
 Generate precomputed XC quadrature information.
          Solving linear equations simultaneously, MaxMat=       0.
 FoFJK:  IHMeth= 1 ICntrl=       0 DoSepK=F KAlg= 0 I1Cent=   0 FoldK=F
 IRaf= 950000000 NMat=  12 IRICut=      30 DoRegI=T DoRafI=T ISym2E= 2.
 FoFCou: FMM=F IPFlag=           0 FMFlag=      100000 FMFlg1=           0
         NFxFlg=           0 DoJE=F BraDBF=F KetDBF=F FulRan=T
         wScrn=  0.000000 ICntrl=       0 IOpCl=  0 I1Cent=           0 NGrid=           0
         NMat0=   12 NMatS0=     12 NMatT0=    0 NMatD0=   12 NMtDS0=    0 NMtDT0=    0
 Integrals replicated using symmetry in FoFCou.
          There are    12 degrees of freedom in the 1st order CPHF.  IDoFFX=4 NUNeed=    12.
     12 vectors produced by pass  0 Test12= 2.22D-14 8.33D-09 XBig12= 1.31D+02 8.52D+00.
 AX will form    12 AO Fock derivatives at one time.
     12 vectors produced by pass  1 Test12= 2.22D-14 8.33D-09 XBig12= 2.53D+01 1.76D+00.
     12 vectors produced by pass  2 Test12= 2.22D-14 8.33D-09 XBig12= 8.66D-01 2.86D-01.
     12 vectors produced by pass  3 Test12= 2.22D-14 8.33D-09 XBig12= 1.05D-02 3.38D-02.
     12 vectors produced by pass  4 Test12= 2.22D-14 8.33D-09 XBig12= 8.01D-05 2.36D-03.
     12 vectors produced by pass  5 Test12= 2.22D-14 8.33D-09 XBig12= 1.51D-06 2.60D-04.
     10 vectors produced by pass  6 Test12= 2.22D-14 8.33D-09 XBig12= 1.07D-08 2.77D-05.
      4 vectors produced by pass  7 Test12= 2.22D-14 8.33D-09 XBig12= 2.46D-11 1.20D-06.
      2 vectors produced by pass  8 Test12= 2.22D-14 8.33D-09 XBig12= 7.81D-14 4.55D-08.
      1 vectors produced by pass  9 Test12= 2.22D-14 8.33D-09 XBig12= 1.39D-15 1.08D-08.
 InvSVY:  IOpt=1 It=  1 EMax= 2.66D-15
 Solved reduced A of dimension    89 with    12 vectors.
 FullF1:  Do perturbations    1 to    12.
 Isotropic polarizability for W=    0.000000       57.98 Bohr**3.
 End of Minotr F.D. properties file   721 does not exist.
 End of Minotr F.D. properties file   722 does not exist.
 End of Minotr F.D. properties file   788 does not exist.
 Leave Link 1002 at Wed Aug  3 23:04:09 2016, MaxMem=    33554432 cpu:       137.8
 (Enter /home/proyectos/fulerenos/M3C-v2.0/M3C-deps_CCC/g09-AM64L-G09RevC.01/l601.exe)
 Copying SCF densities to generalized density rwf, IOpCl= 0 IROHF=0.

 **********************************************************************

            Population analysis using the SCF density.

 **********************************************************************

 Orbital symmetries:
       Occupied  (B2) (A1) (A1) (B2) (A1) (A1) (B2) (B2) (A1) (A2)
                 (B1) (A1) (B2) (A1) (A1) (B2) (B2) (B1) (A2) (A1)
       Virtual   (B1) (A1) (A1) (B2) (B2) (A1) (B1) (A1) (A2) (B2)
                 (A1) (A1) (B2) (B1) (B2) (A1) (B2) (B1) (B2) (A1)
                 (A2) (A1) (B2) (A1) (A2) (B1) (A1) (B2) (B2) (B1)
                 (A2) (A1) (A1) (B2) (A1) (B2) (B1) (B2) (A1) (A1)
                 (A2) (B2) (B1) (A1) (A1) (B1) (B2) (A2) (A1) (B2)
                 (A1) (B2) (A2) (B1) (A2) (B1) (B2) (A1) (B2) (A1)
                 (B2) (A1) (B2) (A1) (B1) (A1) (A2) (A1) (B1) (A2)
                 (B2) (B1) (B2) (A2) (A1) (B1) (A2) (A1) (B2) (B2)
                 (A1) (B1) (B2) (A2) (B2) (A1) (A1) (B2) (A1) (A1)
                 (B2) (B1) (A1) (B1) (A1) (B2) (B1) (A2) (B2) (B2)
                 (A1) (B1) (A2) (B2) (A1) (B2) (A1) (B1) (A2) (A1)
                 (A2) (B1) (B2) (A1) (B2) (A1) (B2) (B1) (A1) (A2)
                 (A1) (B2) (A1) (B2) (B1) (A2) (B2) (A1) (A1) (B2)
                 (A1) (A1) (B2)
 The electronic state is 1-A1.
 Alpha  occ. eigenvalues --  -88.88908 -88.88908 -10.23455  -7.97463  -7.97460
 Alpha  occ. eigenvalues --   -5.93688  -5.93687  -5.93361  -5.93360  -5.93177
 Alpha  occ. eigenvalues --   -5.93176  -0.84906  -0.76134  -0.57427  -0.43768
 Alpha  occ. eigenvalues --   -0.42607  -0.38758  -0.36236  -0.28010  -0.23222
 Alpha virt. eigenvalues --   -0.08063  -0.03112   0.00031   0.00463   0.02566
 Alpha virt. eigenvalues --    0.03717   0.04627   0.04689   0.06899   0.08552
 Alpha virt. eigenvalues --    0.08674   0.09752   0.10114   0.10228   0.10861
 Alpha virt. eigenvalues --    0.12229   0.12594   0.17036   0.18135   0.19155
 Alpha virt. eigenvalues --    0.21661   0.24761   0.25744   0.26078   0.27403
 Alpha virt. eigenvalues --    0.29329   0.29872   0.32093   0.32433   0.34872
 Alpha virt. eigenvalues --    0.36378   0.36580   0.43194   0.43220   0.48962
 Alpha virt. eigenvalues --    0.49651   0.49876   0.58089   0.58547   0.62787
 Alpha virt. eigenvalues --    0.63425   0.63558   0.68259   0.70752   0.75890
 Alpha virt. eigenvalues --    0.80767   0.81880   0.84770   0.86071   0.86629
 Alpha virt. eigenvalues --    0.94390   0.94497   0.95168   0.95780   0.99887
 Alpha virt. eigenvalues --    0.99938   1.00353   1.03808   1.05675   1.06270
 Alpha virt. eigenvalues --    1.06660   1.16063   1.41885   1.43374   1.48856
 Alpha virt. eigenvalues --    1.50823   1.51741   1.63020   1.63436   1.63988
 Alpha virt. eigenvalues --    1.66054   1.67601   1.70619   1.72553   1.79062
 Alpha virt. eigenvalues --    1.82684   1.84419   1.88547   1.94766   1.96959
 Alpha virt. eigenvalues --    1.97662   2.02969   2.13978   2.17159   2.17294
 Alpha virt. eigenvalues --    2.20772   2.24640   2.40060   2.41002   2.71824
 Alpha virt. eigenvalues --    2.72392   2.81567   2.97892   2.99757   3.09285
 Alpha virt. eigenvalues --    3.11219   3.28021   3.28258   3.44926   3.49891
 Alpha virt. eigenvalues --    3.58045   3.79197   3.80033   3.88888   3.91548
 Alpha virt. eigenvalues --    4.01755   4.02326   4.61160   4.62077   4.74031
 Alpha virt. eigenvalues --    4.78347   4.78989   4.89152   4.99908   5.01529
 Alpha virt. eigenvalues --    5.57525   5.68740   7.05175   7.08408   7.16739
 Alpha virt. eigenvalues --    7.35252   7.40063   8.19380   8.46811  17.30133
 Alpha virt. eigenvalues --   17.30515  17.45511  17.58463  17.79118  17.85177
 Alpha virt. eigenvalues --   23.68690 189.19761 189.33821
          Condensed to atoms (all electrons):
               1          2          3          4          5
     1  S   15.534306   0.045000   0.296224   0.272291  -0.001263
     2  S    0.045000  15.534306   0.296224  -0.001263   0.272291
     3  C    0.296224   0.296224   5.638064  -0.085837  -0.085837
     4  H    0.272291  -0.001263  -0.085837   0.637149   0.001682
     5  H   -0.001263   0.272291  -0.085837   0.001682   0.637149
 Mulliken charges:
               1
     1  S   -0.146558
     2  S   -0.146558
     3  C   -0.058839
     4  H    0.175977
     5  H    0.175977
 Sum of Mulliken charges =  -0.00000
 Mulliken charges with hydrogens summed into heavy atoms:
               1
     1  S    0.029419
     2  S    0.029419
     3  C   -0.058839
 APT charges:
               1
     1  S   -0.137013
     2  S   -0.137013
     3  C    0.212614
     4  H    0.030706
     5  H    0.030706
 Sum of APT charges =   0.00000
 APT charges with hydrogens summed into heavy atoms:
               1
     1  S   -0.106307
     2  S   -0.106307
     3  C    0.212614
 Electronic spatial extent (au):  <R**2>=            356.9101
 Charge=             -0.0000 electrons
 Dipole moment (field-independent basis, Debye):
    X=             -0.0000    Y=              0.0000    Z=             -0.2533  Tot=              0.2533
 Quadrupole moment (field-independent basis, Debye-Ang):
   XX=            -34.3938   YY=            -25.7971   ZZ=            -35.1562
   XY=             -0.0000   XZ=              0.0000   YZ=              0.0000
 Traceless Quadrupole moment (field-independent basis, Debye-Ang):
   XX=             -2.6115   YY=              5.9853   ZZ=             -3.3738
   XY=             -0.0000   XZ=              0.0000   YZ=              0.0000
 Octapole moment (field-independent basis, Debye-Ang**2):
  XXX=              0.0000  YYY=             -0.0000  ZZZ=             -6.5603  XYY=              0.0000
  XXY=             -0.0000  XXZ=             -0.8646  XZZ=              0.0000  YZZ=              0.0000
  YYZ=              7.5835  XYZ=              0.0000
 Hexadecapole moment (field-independent basis, Debye-Ang**3):
 XXXX=            -47.4546 YYYY=           -335.1666 ZZZZ=            -87.1044 XXXY=             -0.0000
 XXXZ=             -0.0000 YYYX=             -0.0000 YYYZ=              0.0000 ZZZX=             -0.0000
 ZZZY=              0.0000 XXYY=            -76.3356 XXZZ=            -21.7109 YYZZ=            -73.1283
 XXYZ=              0.0000 YYXZ=             -0.0000 ZZXY=             -0.0000
 N-N= 1.279398709661D+02 E-N=-2.240881599260D+03  KE= 8.343765704480D+02
 Symmetry A1   KE= 3.956231733652D+02
 Symmetry A2   KE= 3.905563759488D+01
 Symmetry B1   KE= 3.816314934493D+01
 Symmetry B2   KE= 3.615346101431D+02
  Exact polarizability:  40.239   0.000  85.091   0.000   0.000  48.596
 Approx polarizability:  63.050   0.000 145.452   0.000  -0.000  81.845
 No NMR shielding tensors so no spin-rotation constants.
 Leave Link  601 at Wed Aug  3 23:04:10 2016, MaxMem=    33554432 cpu:         0.9
 (Enter /home/proyectos/fulerenos/M3C-v2.0/M3C-deps_CCC/g09-AM64L-G09RevC.01/l701.exe)
 Compute integral second derivatives.
 ... and contract with generalized density number  0.
 Leave Link  701 at Wed Aug  3 23:04:10 2016, MaxMem=    33554432 cpu:         1.4
 (Enter /home/proyectos/fulerenos/M3C-v2.0/M3C-deps_CCC/g09-AM64L-G09RevC.01/l702.exe)
 L702 exits ... SP integral derivatives will be done elsewhere.
 Leave Link  702 at Wed Aug  3 23:04:10 2016, MaxMem=    33554432 cpu:         0.1
 (Enter /home/proyectos/fulerenos/M3C-v2.0/M3C-deps_CCC/g09-AM64L-G09RevC.01/l703.exe)
 Compute integral second derivatives, UseDBF=F ICtDFT=           0.
 Integral derivatives from FoFJK, PRISM(SPDF).
 Calling FoFJK, ICntrl=    100127 FMM=F ISym2X=1 I1Cent= 0 IOpClX= 0 NMat=1 NMatS=1 NMatT=0.
 FoFJK:  IHMeth= 1 ICntrl=  100127 DoSepK=F KAlg= 0 I1Cent=   0 FoldK=F
 IRaf=         0 NMat=   1 IRICut=       1 DoRegI=T DoRafI=F ISym2E= 1.
 FoFCou: FMM=F IPFlag=           0 FMFlag=      100000 FMFlg1=         800
         NFxFlg=           0 DoJE=F BraDBF=F KetDBF=F FulRan=T
         wScrn=  0.000000 ICntrl=  100127 IOpCl=  0 I1Cent=           0 NGrid=           0
         NMat0=    1 NMatS0=      1 NMatT0=    0 NMatD0=    1 NMtDS0=    0 NMtDT0=    0
 Petite list used in FoFCou.
 Leave Link  703 at Wed Aug  3 23:04:25 2016, MaxMem=    33554432 cpu:        58.8
 (Enter /home/proyectos/fulerenos/M3C-v2.0/M3C-deps_CCC/g09-AM64L-G09RevC.01/l716.exe)
 Dipole        =-2.36031870D-16 5.56052600D-14-9.96492305D-02
 Polarizability= 4.02393330D+01 2.66617480D-08 8.50910201D+01
                 9.71176158D-10 1.31585317D-07 4.85964412D+01
 Full mass-weighted force constant matrix:
 Low frequencies ---  -20.0501   -6.9127   -0.0011    0.0020    0.0032    7.9913
 Low frequencies ---  282.3583  489.9993  547.4582
 Diagonal vibrational polarizability:
        2.2843806       3.8563598       0.8240149
 Harmonic frequencies (cm**-1), IR intensities (KM/Mole), Raman scattering
 activities (A**4/AMU), depolarization ratios for plane and unpolarized
 incident light, reduced masses (AMU), force constants (mDyne/A),
 and normal coordinates:
                      1                      2                      3
                     A1                     A2                     B1
 Frequencies --    282.3583               489.9993               547.4580
 Red. masses --     11.1511                 1.0886                 1.1919
 Frc consts  --      0.5238                 0.1540                 0.2105
 IR Inten    --      2.2975                 0.0000                25.4412
  Atom  AN      X      Y      Z        X      Y      Z        X      Y      Z
     1  16    -0.00   0.34   0.07    -0.04   0.00  -0.00     0.00   0.00  -0.00
     2  16     0.00  -0.34   0.07     0.04  -0.00  -0.00     0.00  -0.00  -0.00
     3   6     0.00   0.00  -0.48     0.00   0.00   0.00    -0.13  -0.00   0.00
     4   1     0.00  -0.14   0.49     0.71   0.00  -0.00     0.70   0.00   0.00
     5   1    -0.00   0.14   0.49    -0.71  -0.00  -0.00     0.70  -0.00  -0.00
                      4                      5                      6
                     A1                     B2                     A1
 Frequencies --    652.9893               847.0462              1019.5568
 Red. masses --     11.0882                 2.4280                 1.0806
 Frc consts  --      2.7856                 1.0264                 0.6618
 IR Inten    --      0.5003                76.7926                 0.6447
  Atom  AN      X      Y      Z        X      Y      Z        X      Y      Z
     1  16     0.00   0.23  -0.13     0.00  -0.07   0.07     0.00   0.01   0.02
     2  16    -0.00  -0.23  -0.13    -0.00  -0.07  -0.07    -0.00  -0.01   0.02
     3   6     0.00  -0.00   0.72    -0.00   0.28   0.00    -0.00  -0.00  -0.06
     4   1    -0.00   0.33  -0.25     0.00   0.53  -0.41    -0.00   0.56  -0.43
     5   1     0.00  -0.33  -0.25     0.00   0.53   0.41     0.00  -0.56  -0.43
                      7                      8                      9
                     B2                     A1                     B2
 Frequencies --   1102.1268              2618.1926              2620.6023
 Red. masses --      1.7227                 1.0406                 1.0394
 Frc consts  --      1.2329                 4.2028                 4.2055
 IR Inten    --     43.7152                 0.0648                 1.9269
  Atom  AN      X      Y      Z        X      Y      Z        X      Y      Z
     1  16     0.00  -0.03  -0.00     0.00  -0.01  -0.02    -0.00  -0.01  -0.02
     2  16    -0.00  -0.03   0.00    -0.00   0.01  -0.02    -0.00  -0.01   0.02
     3   6    -0.00   0.25  -0.00    -0.00  -0.00   0.00     0.00  -0.00  -0.00
     4   1     0.00  -0.54   0.43    -0.00   0.45   0.55    -0.00   0.45   0.54
     5   1     0.00  -0.54  -0.43     0.00  -0.45   0.55    -0.00   0.45  -0.54

 -------------------
 - Thermochemistry -
 -------------------
 Temperature   298.150 Kelvin.  Pressure   1.00000 Atm.
 Atom     1 has atomic number 16 and mass  31.97207
 Atom     2 has atomic number 16 and mass  31.97207
 Atom     3 has atomic number  6 and mass  12.00000
 Atom     4 has atomic number  1 and mass   1.00783
 Atom     5 has atomic number  1 and mass   1.00783
 Molecular mass:    77.95979 amu.
 Principal axes and moments of inertia in atomic units:
                           1         2         3
     Eigenvalues --    36.57452 492.86606 529.44058
           X            0.00000   0.00000   1.00000
           Y            1.00000   0.00000  -0.00000
           Z            0.00000   1.00000   0.00000
 This molecule is an asymmetric top.
 Rotational symmetry number  2.
 Rotational temperatures (Kelvin)      2.36815     0.17573     0.16359
 Rotational constants (GHZ):          49.34422     3.66173     3.40877
 Zero-point vibrational energy      60891.9 (Joules/Mol)
                                   14.55351 (Kcal/Mol)
 Warning -- explicit consideration of   3 degrees of freedom as
           vibrations may cause significant error
 Vibrational temperatures:    406.25   705.00   787.67   939.50  1218.71
          (Kelvin)           1466.91  1585.71  3766.99  3770.46
 
 Zero-point correction=                           0.023192 (Hartree/Particle)
 Thermal correction to Energy=                    0.027149
 Thermal correction to Enthalpy=                  0.028093
 Thermal correction to Gibbs Free Energy=        -0.002701
 Sum of electronic and zero-point Energies=           -835.669179
 Sum of electronic and thermal Energies=              -835.665223
 Sum of electronic and thermal Enthalpies=            -835.664279
 Sum of electronic and thermal Free Energies=         -835.695072
 
                     E (Thermal)             CV                S
                      KCal/Mol        Cal/Mol-Kelvin    Cal/Mol-Kelvin
 Total                   17.036             12.220             64.810
 Electronic               0.000              0.000              0.000
 Translational            0.889              2.981             38.976
 Rotational               0.889              2.981             22.394
 Vibrational             15.258              6.258              3.440
 Vibration     1          0.681              1.706              1.519
 Vibration     2          0.846              1.272              0.684
 Vibration     3          0.903              1.145              0.549
                       Q            Log10(Q)             Ln(Q)
 Total Bot       0.174665D+02          1.242207          2.860287
 Total V=0       0.812816D+12         11.909992         27.423771
 Vib (Bot)       0.369204D-10        -10.432733        -24.022256
 Vib (Bot)    1  0.680064D+00         -0.167450         -0.385568
 Vib (Bot)    2  0.338380D+00         -0.470595         -1.083585
 Vib (Bot)    3  0.287356D+00         -0.541580         -1.247034
 Vib (V=0)       0.171812D+01          0.235052          0.541228
 Vib (V=0)    1  0.134409D+01          0.128428          0.295717
 Vib (V=0)    2  0.110374D+01          0.042867          0.098704
 Vib (V=0)    3  0.107669D+01          0.032091          0.073893
 Electronic      0.100000D+01          0.000000          0.000000
 Translational   0.270559D+08          7.432261         17.113414
 Rotational      0.174855D+05          4.242679          9.769129
 
                                                              b3lyp opt
                                                             IR Spectrum
 
     22                                                                        1   1                                                 
     66                                                                        1   0       8         6    5  4         2             
     21                                                                        0   2       4         5    4  9         8             
     18                                                                        2   0       7         3    7  0         2             
 
     XX                                                                        X   X       X         X    X            X             
                                                                               X           X              X                          
                                                                               X           X              X                          
                                                                               X           X              X                          
                                                                               X           X              X                          
                                                                               X           X              X                          
                                                                               X           X              X                          
                                                                               X           X                                         
                                                                               X           X                                         
                                                                               X           X                                         
                                                                               X           X                                         
                                                                                           X                                         
                                                                                           X                                         
                                                                                           X                                         
                                                                                           X                                         
                                                                                           X                                         
                                                                                           X                                         
                                                                                           X                                         
                                                                                           X                                         
                                                                                           X                                         
 
 ***** Axes restored to original set *****
 -------------------------------------------------------------------
 Center     Atomic                   Forces (Hartrees/Bohr)
 Number     Number              X              Y              Z
 -------------------------------------------------------------------
      1       16          -0.000019430    0.000019599    0.000026272
      2       16           0.000024192    0.000026096   -0.000013626
      3        6           0.000001720    0.000016501    0.000004567
      4        1           0.000012294   -0.000028785   -0.000022815
      5        1          -0.000018775   -0.000033412    0.000005602
 -------------------------------------------------------------------
 Cartesian Forces:  Max     0.000033412 RMS     0.000020331
 Z-matrix is all fixed cartesians, so copy forces.
 Force constants in Cartesian coordinates: 
                1             2             3             4             5 
      1  0.156126D+00
      2  0.138404D-01  0.239228D+00
      3 -0.135553D+00  0.727678D-01  0.170237D+00
      4 -0.269141D-01  0.131776D-01  0.203176D-01  0.169590D+00
      5 -0.166666D-01 -0.554227D-02  0.182888D-01  0.794484D-01  0.258470D+00
      6  0.903875D-02 -0.106875D-01 -0.239322D-01 -0.123831D+00  0.163400D-01
      7 -0.924729D-01 -0.749448D-01  0.605165D-01 -0.715844D-01  0.354818D-01
      8 -0.663012D-01 -0.923494D-01  0.298391D-01  0.268382D-01 -0.624975D-01
      9  0.637831D-01  0.382314D-01 -0.484513D-01  0.787018D-01 -0.577020D-01
     10 -0.374817D-01  0.499048D-01  0.490535D-01 -0.139214D-03 -0.135904D-02
     11  0.661881D-01 -0.143124D+00 -0.115941D+00 -0.627635D-02  0.527009D-03
     12  0.552073D-01 -0.100131D+00 -0.978278D-01  0.489758D-02 -0.125835D-02
     13  0.742907D-03 -0.197806D-02  0.566554D-02 -0.709525D-01 -0.969046D-01
     14  0.293925D-02  0.178765D-02 -0.495520D-02 -0.113188D+00 -0.190957D+00
     15  0.752392D-02 -0.180900D-03 -0.253622D-04  0.199141D-01  0.243315D-01
                6             7             8             9            10 
      6  0.137530D+00
      7  0.819685D-01  0.202965D+00
      8 -0.493098D-01  0.374590D-01  0.130527D+00
      9 -0.991917D-01 -0.160709D+00  0.431977D-02  0.180529D+00
     10  0.675595D-02 -0.201123D-01  0.304709D-02  0.105239D-01  0.575541D-01
     11  0.351596D-02 -0.745860D-02  0.112190D-01  0.154344D-01 -0.519587D-01
     12  0.211740D-02  0.655352D-02  0.523426D-02 -0.148440D-01 -0.668029D-01
     13  0.260680D-01 -0.187956D-01 -0.104314D-02  0.769975D-02  0.179119D-03
     14  0.401413D-01  0.946254D-02  0.131006D-01 -0.283516D-03  0.365816D-03
     15 -0.165236D-01  0.116701D-01  0.991663D-02 -0.180422D-01  0.469627D-03
               11            12            13            14            15 
     11  0.130997D+00
     12  0.965627D-01  0.110328D+00
     13 -0.494486D-03  0.144498D-03  0.888262D-01
     14  0.381212D-03 -0.407788D-03  0.100420D+00  0.175688D+00
     15  0.427494D-03  0.226013D-03 -0.395778D-01 -0.344948D-01  0.343651D-01
 Leave Link  716 at Wed Aug  3 23:04:25 2016, MaxMem=    33554432 cpu:         0.1
 (Enter /home/proyectos/fulerenos/M3C-v2.0/M3C-deps_CCC/g09-AM64L-G09RevC.01/l103.exe)

 GradGradGradGradGradGradGradGradGradGradGradGradGradGradGradGradGradGrad
 Berny optimization.
 Search for a local minimum.
 Step number   1 out of a maximum of    2
 All quantities printed in internal units (Hartrees-Bohrs-Radians)
 Second derivative matrix not updated -- analytic derivatives used.
 The second derivative matrix:
                          X1        Y1        Z1        X2        Y2
           X1           0.15613
           Y1           0.01384   0.23923
           Z1          -0.13555   0.07277   0.17024
           X2          -0.02691   0.01318   0.02032   0.16959
           Y2          -0.01667  -0.00554   0.01829   0.07945   0.25847
           Z2           0.00904  -0.01069  -0.02393  -0.12383   0.01634
           X3          -0.09247  -0.07494   0.06052  -0.07158   0.03548
           Y3          -0.06630  -0.09235   0.02984   0.02684  -0.06250
           Z3           0.06378   0.03823  -0.04845   0.07870  -0.05770
           X4          -0.03748   0.04990   0.04905  -0.00014  -0.00136
           Y4           0.06619  -0.14312  -0.11594  -0.00628   0.00053
           Z4           0.05521  -0.10013  -0.09783   0.00490  -0.00126
           X5           0.00074  -0.00198   0.00567  -0.07095  -0.09690
           Y5           0.00294   0.00179  -0.00496  -0.11319  -0.19096
           Z5           0.00752  -0.00018  -0.00003   0.01991   0.02433
                          Z2        X3        Y3        Z3        X4
           Z2           0.13753
           X3           0.08197   0.20297
           Y3          -0.04931   0.03746   0.13053
           Z3          -0.09919  -0.16071   0.00432   0.18053
           X4           0.00676  -0.02011   0.00305   0.01052   0.05755
           Y4           0.00352  -0.00746   0.01122   0.01543  -0.05196
           Z4           0.00212   0.00655   0.00523  -0.01484  -0.06680
           X5           0.02607  -0.01880  -0.00104   0.00770   0.00018
           Y5           0.04014   0.00946   0.01310  -0.00028   0.00037
           Z5          -0.01652   0.01167   0.00992  -0.01804   0.00047
                          Y4        Z4        X5        Y5        Z5
           Y4           0.13100
           Z4           0.09656   0.11033
           X5          -0.00049   0.00014   0.08883
           Y5           0.00038  -0.00041   0.10042   0.17569
           Z5           0.00043   0.00023  -0.03958  -0.03449   0.03437
 ITU=  0
     Eigenvalues ---    0.01997   0.02451   0.02676   0.07113   0.07741
     Eigenvalues ---    0.32214   0.38528   0.50334   0.52379
 Angle between quadratic step and forces=  64.24 degrees.
 ClnCor:  largest displacement from symmetrization is 1.89D-12 for atom     5.
 Linear search not attempted -- first point.
 ClnCor:  largest displacement from symmetrization is 1.68D-15 for atom     4.
 B after Tr=     0.000007    0.000071    0.000020
         Rot=    1.000000    0.000000    0.000000    0.000000 Ang=   0.00 deg.
 Variable       Old X    -DE/DX   Delta X   Delta X   Delta X     New X
                                 (Linear)    (Quad)   (Total)
    X1       -2.49325  -0.00002   0.00000   0.00005   0.00006  -2.49319
    Y1       -0.10853   0.00002   0.00000   0.00001   0.00008  -0.10845
    Z1        1.41048   0.00003   0.00000  -0.00005  -0.00003   1.41045
    X2        1.42030   0.00002   0.00000  -0.00006  -0.00005   1.42025
    Y2        0.47428   0.00003   0.00000  -0.00001   0.00006   0.47434
    Z2       -2.16900  -0.00001   0.00000   0.00005   0.00007  -2.16893
    X3       -0.36084   0.00000   0.00000   0.00003   0.00003  -0.36080
    Y3        1.86839   0.00002   0.00000   0.00025   0.00033   1.86871
    Z3        0.08721   0.00000   0.00000   0.00007   0.00009   0.08730
    X4       -3.51883   0.00001   0.00000  -0.00007  -0.00006  -3.51889
    Y4        1.56068  -0.00003   0.00000  -0.00031  -0.00024   1.56044
    Z4        3.03707  -0.00002   0.00000  -0.00005  -0.00003   3.03704
    X5        2.83158  -0.00002   0.00000   0.00001   0.00001   2.83159
    Y5        2.50638  -0.00003   0.00000  -0.00030  -0.00023   2.50615
    Z5       -2.77125   0.00001   0.00000  -0.00012  -0.00010  -2.77134
         Item               Value     Threshold  Converged?
 Maximum Force            0.000033     0.000450     YES
 RMS     Force            0.000020     0.000300     YES
 Maximum Displacement     0.000325     0.001800     YES
 RMS     Displacement     0.000131     0.001200     YES
 Predicted change in Energy=-9.146849D-09
 Optimization completed.
    -- Stationary point found.
 GradGradGradGradGradGradGradGradGradGradGradGradGradGradGradGradGradGrad

 Leave Link  103 at Wed Aug  3 23:04:25 2016, MaxMem=    33554432 cpu:         0.1
 (Enter /home/proyectos/fulerenos/M3C-v2.0/M3C-deps_CCC/g09-AM64L-G09RevC.01/l9999.exe)
 1\1\GINC-DEPAZ28\Freq\RB3LYP\6-311++G(3df,2p)\C1H2S2\NAGUIRRE\03-Aug-2
 016\0\\#p b3lyp/6-311++G(3df,2p) freq\\b3lyp opt\\0,1\S,-1.319371698,-
 0.057431371,0.746394251\S,0.7515899131,0.250976966,-1.1477829231\C,-0.
 190946462,0.9887085659,0.0461488743\H,-1.8620858916,0.8258737972,1.607
 1476524\H,1.4984055565,1.3263193746,-1.4664806375\\Version=EM64L-G09Re
 vE.01\State=1-A1\HF=-835.6923713\RMSD=2.271e-09\RMSF=2.033e-05\ZeroPoi
 nt=0.0231925\Thermal=0.0271485\Dipole=-0.0099577,-0.0955585,-0.0264458
 \DipoleDeriv=-0.3030632,-0.1238747,0.2844717,-0.3315796,0.0121245,0.31
 21017,0.2059749,0.1104375,-0.1201004,-0.226625,0.0408793,0.2725212,0.2
 485842,0.1213627,-0.2099055,0.351018,-0.0082412,-0.3057768,0.4506352,0
 .1194366,-0.6609309,0.1194366,-0.1519023,-0.068843,-0.6609309,-0.06884
 3,0.3391085,0.0406307,-0.0273261,0.0474557,0.0016458,0.0107856,-0.0353
 689,0.0584049,-0.0072396,0.0407021,0.0384223,-0.0091151,0.0564823,-0.0
 38087,0.0076295,0.0020157,0.0455331,-0.0261137,0.0460666\Polar=64.4529
 748,4.3943001,48.4595303,-21.8487274,-1.1598861,61.0142892\PG=C02V [C2
 (C1),SGV(H2S2)]\NImag=0\\0.15612579,0.01384044,0.23922798,-0.13555314,
 0.07276784,0.17023663,-0.02691412,0.01317764,0.02031762,0.16959023,-0.
 01666657,-0.00554227,0.01828878,0.07944836,0.25847009,0.00903875,-0.01
 068748,-0.02393218,-0.12383114,0.01634004,0.13753008,-0.09247287,-0.07
 494482,0.06051651,-0.07158435,0.03548185,0.08196845,0.20296513,-0.0663
 0122,-0.09234936,0.02983914,0.02683825,-0.06249747,-0.04930981,0.03745
 903,0.13052727,0.06378314,0.03823136,-0.04845133,0.07870182,-0.0577020
 3,-0.09919173,-0.16070860,0.00431977,0.18052924,-0.03748171,0.04990479
 ,0.04905347,-0.00013921,-0.00135904,0.00675595,-0.02011226,0.00304709,
 0.01052388,0.05755407,0.06618810,-0.14312400,-0.11594055,-0.00627635,0
 .00052701,0.00351596,-0.00745860,0.01121899,0.01543441,-0.05195866,0.1
 3099679,0.05520733,-0.10013082,-0.09782775,0.00489758,-0.00125835,0.00
 211740,0.00655352,0.00523426,-0.01484399,-0.06680293,0.09656269,0.1103
 2832,0.00074291,-0.00197806,0.00566554,-0.07095255,-0.09690460,0.02606
 798,-0.01879565,-0.00104314,0.00769975,0.00017912,-0.00049449,0.000144
 50,0.08882617,0.00293925,0.00178765,-0.00495520,-0.11318790,-0.1909573
 6,0.04014129,0.00946254,0.01310058,-0.00028352,0.00036582,0.00038121,-
 0.00040779,0.10042029,0.17568792,0.00752392,-0.00018090,-0.00002536,0.
 01991412,0.02433155,-0.01652356,0.01167011,0.00991663,-0.01804219,0.00
 046963,0.00042749,0.00022601,-0.03957778,-0.03449478,0.03436510\\0.000
 01943,-0.00001960,-0.00002627,-0.00002419,-0.00002610,0.00001363,-0.00
 000172,-0.00001650,-0.00000457,-0.00001229,0.00002878,0.00002281,0.000
 01877,0.00003341,-0.00000560\\\@


 A FOOL CAN ASK MORE QUESTIONS THAN
 A WISE MAN CAN ANSWER.
 Job cpu time:       0 days  0 hours  4 minutes 42.6 seconds.
 File lengths (MBytes):  RWF=     16 Int=      0 D2E=      0 Chk=      2 Scr=      1
 Normal termination of Gaussian 09 at Wed Aug  3 23:04:25 2016.
