 Entering Gaussian System, Link 0=/home/proyectos/fulerenos/M3C-v2.0/M3C-deps_CCC/g09-AM64L-G09RevC.01/g09
 Initial command:
 /home/proyectos/fulerenos/M3C-v2.0/M3C-deps_CCC/g09-AM64L-G09RevC.01/l1.exe "/scratch/naguirre/gaussian/Gau-15879.inp" -scrdir="/scratch/naguirre/gaussian/"
 Entering Link 1 = /home/proyectos/fulerenos/M3C-v2.0/M3C-deps_CCC/g09-AM64L-G09RevC.01/l1.exe PID=     15887.
  
 Copyright (c) 1988,1990,1992,1993,1995,1998,2003,2009,2015,
            Gaussian, Inc.  All Rights Reserved.
  
 This is part of the Gaussian(R) 09 program.  It is based on
 the Gaussian(R) 03 system (copyright 2003, Gaussian, Inc.),
 the Gaussian(R) 98 system (copyright 1998, Gaussian, Inc.),
 the Gaussian(R) 94 system (copyright 1995, Gaussian, Inc.),
 the Gaussian 92(TM) system (copyright 1992, Gaussian, Inc.),
 the Gaussian 90(TM) system (copyright 1990, Gaussian, Inc.),
 the Gaussian 88(TM) system (copyright 1988, Gaussian, Inc.),
 the Gaussian 86(TM) system (copyright 1986, Carnegie Mellon
 University), and the Gaussian 82(TM) system (copyright 1983,
 Carnegie Mellon University). Gaussian is a federally registered
 trademark of Gaussian, Inc.
  
 This software contains proprietary and confidential information,
 including trade secrets, belonging to Gaussian, Inc.
  
 This software is provided under written license and may be
 used, copied, transmitted, or stored only in accord with that
 written license.
  
 The following legend is applicable only to US Government
 contracts under FAR:
  
                    RESTRICTED RIGHTS LEGEND
  
 Use, reproduction and disclosure by the US Government is
 subject to restrictions as set forth in subparagraphs (a)
 and (c) of the Commercial Computer Software - Restricted
 Rights clause in FAR 52.227-19.
  
 Gaussian, Inc.
 340 Quinnipiac St., Bldg. 40, Wallingford CT 06492
  
  
 ---------------------------------------------------------------
 Warning -- This program may not be used in any manner that
 competes with the business of Gaussian, Inc. or will provide
 assistance to any competitor of Gaussian, Inc.  The licensee
 of this program is prohibited from giving any competitor of
 Gaussian, Inc. access to this program.  By using this program,
 the user acknowledges that Gaussian, Inc. is engaged in the
 business of creating and licensing software in the field of
 computational chemistry and represents and warrants to the
 licensee that it is not a competitor of Gaussian, Inc. and that
 it will not use this program in any manner prohibited above.
 ---------------------------------------------------------------
  

 Cite this work as:
 Gaussian 09, Revision E.01,
 M. J. Frisch, G. W. Trucks, H. B. Schlegel, G. E. Scuseria, 
 M. A. Robb, J. R. Cheeseman, G. Scalmani, V. Barone, B. Mennucci, 
 G. A. Petersson, H. Nakatsuji, M. Caricato, X. Li, H. P. Hratchian, 
 A. F. Izmaylov, J. Bloino, G. Zheng, J. L. Sonnenberg, M. Hada, 
 M. Ehara, K. Toyota, R. Fukuda, J. Hasegawa, M. Ishida, T. Nakajima, 
 Y. Honda, O. Kitao, H. Nakai, T. Vreven, J. A. Montgomery, Jr., 
 J. E. Peralta, F. Ogliaro, M. Bearpark, J. J. Heyd, E. Brothers, 
 K. N. Kudin, V. N. Staroverov, T. Keith, R. Kobayashi, J. Normand, 
 K. Raghavachari, A. Rendell, J. C. Burant, S. S. Iyengar, J. Tomasi, 
 M. Cossi, N. Rega, J. M. Millam, M. Klene, J. E. Knox, J. B. Cross, 
 V. Bakken, C. Adamo, J. Jaramillo, R. Gomperts, R. E. Stratmann, 
 O. Yazyev, A. J. Austin, R. Cammi, C. Pomelli, J. W. Ochterski, 
 R. L. Martin, K. Morokuma, V. G. Zakrzewski, G. A. Voth, 
 P. Salvador, J. J. Dannenberg, S. Dapprich, A. D. Daniels, 
 O. Farkas, J. B. Foresman, J. V. Ortiz, J. Cioslowski, 
 and D. J. Fox, Gaussian, Inc., Wallingford CT, 2013.
 
 ******************************************
 Gaussian 09:  EM64L-G09RevE.01 30-Nov-2015
                 3-Aug-2016 
 ******************************************
 %NProcShared=4
 Will use up to    4 processors via shared memory.
 ------------------------------
 #p b3lyp/6-311++G(3df,2p) freq
 ------------------------------
 1/10=4,30=1,38=1/1,3;
 2/12=2,17=6,18=5,40=1/2;
 3/5=4,6=6,7=1216,11=2,16=1,25=1,30=1,71=2,74=-5,140=1/1,2,3;
 4//1;
 5/5=2,38=5,98=1/2;
 8/6=4,10=90,11=11/1;
 11/6=1,8=1,9=11,15=111,16=1/1,2,10;
 10/6=1/2;
 6/7=2,8=2,9=2,10=2,18=1,28=1/1;
 7/8=1,10=1,25=1/1,2,3,16;
 1/10=4,30=1/3;
 99//99;
 Leave Link    1 at Wed Aug  3 20:37:58 2016, MaxMem=           0 cpu:         0.3
 (Enter /home/proyectos/fulerenos/M3C-v2.0/M3C-deps_CCC/g09-AM64L-G09RevC.01/l101.exe)
 ---------
 b3lyp opt
 ---------
 Symbolic Z-matrix:
 Charge =  1 Multiplicity = 2
 S                    -1.70751  -0.55225  -0.18997 
 S                     0.50955   1.47131   0.20774 
 C                    -0.26026   0.15702  -0.50143 
 H                    -0.42967   1.78058   1.12964 
 H                     0.31797  -0.29219  -1.314 
 
 NAtoms=      5 NQM=        5 NQMF=       0 NMMI=      0 NMMIF=      0
                NMic=       0 NMicF=      0.
                    Isotopes and Nuclear Properties:
 (Nuclear quadrupole moments (NQMom) in fm**2, nuclear magnetic moments (NMagM)
  in nuclear magnetons)

  Atom         1           2           3           4           5
 IAtWgt=          32          32          12           1           1
 AtmWgt=  31.9720718  31.9720718  12.0000000   1.0078250   1.0078250
 NucSpn=           0           0           0           1           1
 AtZEff=   0.0000000   0.0000000   0.0000000   0.0000000   0.0000000
 NQMom=    0.0000000   0.0000000   0.0000000   0.0000000   0.0000000
 NMagM=    0.0000000   0.0000000   0.0000000   2.7928460   2.7928460
 AtZNuc=  16.0000000  16.0000000   6.0000000   1.0000000   1.0000000
 Leave Link  101 at Wed Aug  3 20:37:58 2016, MaxMem=    33554432 cpu:         0.2
 (Enter /home/proyectos/fulerenos/M3C-v2.0/M3C-deps_CCC/g09-AM64L-G09RevC.01/l103.exe)

 GradGradGradGradGradGradGradGradGradGradGradGradGradGradGradGradGradGrad
 Berny optimization.
 Initialization pass.
 Trust Radius=3.00D-01 FncErr=1.00D-07 GrdErr=1.00D-07
 Number of steps in this run=      2 maximum allowed number of steps=      2.
 GradGradGradGradGradGradGradGradGradGradGradGradGradGradGradGradGradGrad

 Leave Link  103 at Wed Aug  3 20:37:58 2016, MaxMem=    33554432 cpu:         0.1
 (Enter /home/proyectos/fulerenos/M3C-v2.0/M3C-deps_CCC/g09-AM64L-G09RevC.01/l202.exe)
                          Input orientation:                          
 ---------------------------------------------------------------------
 Center     Atomic      Atomic             Coordinates (Angstroms)
 Number     Number       Type             X           Y           Z
 ---------------------------------------------------------------------
      1         16           0       -1.707509   -0.552253   -0.189968
      2         16           0        0.509553    1.471312    0.207741
      3          6           0       -0.260262    0.157020   -0.501433
      4          1           0       -0.429665    1.780575    1.129638
      5          1           0        0.317967   -0.292191   -1.313999
 ---------------------------------------------------------------------
                    Distance matrix (angstroms):
                    1          2          3          4          5
     1  S    0.000000
     2  S    3.027929   0.000000
     3  C    1.641524   1.680151   0.000000
     4  H    2.969231   1.351913   2.307601   0.000000
     5  H    2.331015   2.337165   1.093802   3.290391   0.000000
 Stoichiometry    CH2S2(1+,2)
 Framework group  C1[X(CH2S2)]
 Deg. of freedom     9
 Full point group                 C1      NOp   1
 Largest Abelian subgroup         C1      NOp   1
 Largest concise Abelian subgroup C1      NOp   1
                         Standard orientation:                         
 ---------------------------------------------------------------------
 Center     Atomic      Atomic             Coordinates (Angstroms)
 Number     Number       Type             X           Y           Z
 ---------------------------------------------------------------------
      1         16           0       -1.536122   -0.153299    0.000051
      2         16           0        1.490831   -0.076433    0.000037
      3          6           0       -0.061159    0.567177   -0.000501
      4          1           0        1.164097   -1.388269    0.000250
      5          1           0       -0.072482    1.660919    0.001339
 ---------------------------------------------------------------------
 Rotational constants (GHZ):     53.2041062      3.4164287      3.2102849
 Leave Link  202 at Wed Aug  3 20:37:58 2016, MaxMem=    33554432 cpu:         0.0
 (Enter /home/proyectos/fulerenos/M3C-v2.0/M3C-deps_CCC/g09-AM64L-G09RevC.01/l301.exe)
 Standard basis: 6-311++G(3df,2p) (5D, 7F)
 Ernie: Thresh=  0.10000D-02 Tol=  0.10000D-05 Strict=F.
 There are   171 symmetry adapted cartesian basis functions of A   symmetry.
 There are   153 symmetry adapted basis functions of A   symmetry.
   153 basis functions,   226 primitive gaussians,   171 cartesian basis functions
    20 alpha electrons       19 beta electrons
       nuclear repulsion energy       126.7322379562 Hartrees.
 IExCor=  402 DFT=T Ex+Corr=B3LYP ExCW=0 ScaHFX=  0.200000
 ScaDFX=  0.800000  0.720000  1.000000  0.810000 ScalE2=  1.000000  1.000000
 IRadAn=      0 IRanWt=     -1 IRanGd=            0 ICorTp=0 IEmpDi=  4
 NAtoms=    5 NActive=    5 NUniq=    5 SFac= 1.00D+00 NAtFMM=   60 NAOKFM=F Big=F
 Integral buffers will be    131072 words long.
 Raffenetti 2 integral format.
 Two-electron integral symmetry is turned on.
 Leave Link  301 at Wed Aug  3 20:37:58 2016, MaxMem=    33554432 cpu:         0.2
 (Enter /home/proyectos/fulerenos/M3C-v2.0/M3C-deps_CCC/g09-AM64L-G09RevC.01/l302.exe)
 NPDir=0 NMtPBC=     1 NCelOv=     1 NCel=       1 NClECP=     1 NCelD=      1
         NCelK=      1 NCelE2=     1 NClLst=     1 CellRange=     0.0.
 One-electron integrals computed using PRISM.
 NBasis=   153 RedAO= T EigKep=  1.56D-04  NBF=   153
 NBsUse=   153 1.00D-06 EigRej= -1.00D+00 NBFU=   153
 Precomputing XC quadrature grid using
 IXCGrd= 4 IRadAn=           0 IRanWt=          -1 IRanGd=           0 AccXCQ= 0.00D+00.
 Generated NRdTot=       0 NPtTot=           0 NUsed=           0 NTot=          32
 NSgBfM=   171   171   171   171   171 MxSgAt=     5 MxSgA2=     5.
 Leave Link  302 at Wed Aug  3 20:37:58 2016, MaxMem=    33554432 cpu:         0.9
 (Enter /home/proyectos/fulerenos/M3C-v2.0/M3C-deps_CCC/g09-AM64L-G09RevC.01/l303.exe)
 DipDrv:  MaxL=1.
 Leave Link  303 at Wed Aug  3 20:37:59 2016, MaxMem=    33554432 cpu:         0.1
 (Enter /home/proyectos/fulerenos/M3C-v2.0/M3C-deps_CCC/g09-AM64L-G09RevC.01/l401.exe)
 ExpMin= 3.60D-02 ExpMax= 9.34D+04 ExpMxC= 3.17D+03 IAcc=3 IRadAn=         5 AccDes= 0.00D+00
 Harris functional with IExCor=  402 and IRadAn=       5 diagonalized for initial guess.
 HarFok:  IExCor=  402 AccDes= 0.00D+00 IRadAn=         5 IDoV= 1 UseB2=F ITyADJ=14
 ICtDFT=  3500011 ScaDFX=  1.000000  1.000000  1.000000  1.000000
 FoFCou: FMM=F IPFlag=           0 FMFlag=      100000 FMFlg1=           0
         NFxFlg=           0 DoJE=T BraDBF=F KetDBF=T FulRan=T
         wScrn=  0.000000 ICntrl=     500 IOpCl=  0 I1Cent=   200000004 NGrid=           0
         NMat0=    1 NMatS0=      1 NMatT0=    0 NMatD0=    1 NMtDS0=    0 NMtDT0=    0
 Petite list used in FoFCou.
 Harris En= -835.402174241486    
 JPrj=0 DoOrth=F DoCkMO=F.
 Initial guess <Sx>= 0.0000 <Sy>= 0.0000 <Sz>= 0.5000 <S**2>= 0.7500 S= 0.5000
 Leave Link  401 at Wed Aug  3 20:38:00 2016, MaxMem=    33554432 cpu:         3.5
 (Enter /home/proyectos/fulerenos/M3C-v2.0/M3C-deps_CCC/g09-AM64L-G09RevC.01/l502.exe)
 UHF open shell SCF:
 Using DIIS extrapolation, IDIIS=  1040.
 Integral symmetry usage will be decided dynamically.
 IVT=      108541 IEndB=      108541 NGot=    33554432 MDV=    33491944
 LenX=    33491944 LenY=    33462262
 Requested convergence on RMS density matrix=1.00D-08 within 128 cycles.
 Requested convergence on MAX density matrix=1.00D-06.
 Requested convergence on             energy=1.00D-06.
 No special actions if energy rises.
 Fock matrices will be formed incrementally for  20 cycles.

 Cycle   1  Pass 1  IDiag  1:
 FoFJK:  IHMeth= 1 ICntrl=       0 DoSepK=F KAlg= 0 I1Cent=   0 FoldK=F
 IRaf= 970000000 NMat=   1 IRICut=       1 DoRegI=T DoRafI=F ISym2E= 0.
 FoFCou: FMM=F IPFlag=           0 FMFlag=      100000 FMFlg1=           0
         NFxFlg=           0 DoJE=F BraDBF=F KetDBF=F FulRan=T
         wScrn=  0.000000 ICntrl=       0 IOpCl=  1 I1Cent=           0 NGrid=           0
         NMat0=    1 NMatS0=      1 NMatT0=    0 NMatD0=    1 NMtDS0=    0 NMtDT0=    0
 Symmetry not used in FoFCou.
 E= -835.365730791103    
 DIIS: error= 1.82D-02 at cycle   1 NSaved=   1.
 NSaved= 1 IEnMin= 1 EnMin= -835.365730791103     IErMin= 1 ErrMin= 1.82D-02
 ErrMax= 1.82D-02  0.00D+00 EMaxC= 1.00D-01 BMatC= 3.44D-01 BMatP= 3.44D-01
 IDIUse=3 WtCom= 8.18D-01 WtEn= 1.82D-01
 Coeff-Com:  0.100D+01
 Coeff-En:   0.100D+01
 Coeff:      0.100D+01
 Gap=     0.270 Goal=   None    Shift=    0.000
 Gap=     0.062 Goal=   None    Shift=    0.000
 GapD=    0.062 DampG=0.500 DampE=0.500 DampFc=0.2500 IDamp=-1.
 Damping current iteration by 2.50D-01
 RMSDP=2.84D-03 MaxDP=1.22D-01              OVMax= 2.96D-01

 Cycle   2  Pass 1  IDiag  1:
 RMSU=  7.08D-04    CP:  1.00D+00
 E= -835.386172653286     Delta-E=       -0.020441862184 Rises=F Damp=T
 DIIS: error= 1.13D-02 at cycle   2 NSaved=   2.
 NSaved= 2 IEnMin= 2 EnMin= -835.386172653286     IErMin= 2 ErrMin= 1.13D-02
 ErrMax= 1.13D-02  0.00D+00 EMaxC= 1.00D-01 BMatC= 9.50D-02 BMatP= 3.44D-01
 IDIUse=3 WtCom= 8.87D-01 WtEn= 1.13D-01
 Coeff-Com: -0.678D+00 0.168D+01
 Coeff-En:   0.000D+00 0.100D+01
 Coeff:     -0.602D+00 0.160D+01
 Gap=     0.182 Goal=   None    Shift=    0.000
 Gap=     0.096 Goal=   None    Shift=    0.000
 RMSDP=9.37D-04 MaxDP=3.29D-02 DE=-2.04D-02 OVMax= 1.97D-01

 Cycle   3  Pass 1  IDiag  1:
 RMSU=  8.55D-04    CP:  1.01D+00  1.50D+00
 E= -835.417126939318     Delta-E=       -0.030954286032 Rises=F Damp=F
 DIIS: error= 9.65D-03 at cycle   3 NSaved=   3.
 NSaved= 3 IEnMin= 3 EnMin= -835.417126939318     IErMin= 3 ErrMin= 9.65D-03
 ErrMax= 9.65D-03  0.00D+00 EMaxC= 1.00D-01 BMatC= 2.52D-02 BMatP= 9.50D-02
 IDIUse=3 WtCom= 9.03D-01 WtEn= 9.65D-02
 Coeff-Com: -0.430D+00 0.765D+00 0.665D+00
 Coeff-En:   0.000D+00 0.000D+00 0.100D+01
 Coeff:     -0.388D+00 0.691D+00 0.697D+00
 Gap=     0.184 Goal=   None    Shift=    0.000
 Gap=     0.089 Goal=   None    Shift=    0.000
 RMSDP=5.35D-04 MaxDP=1.70D-02 DE=-3.10D-02 OVMax= 4.96D-02

 Cycle   4  Pass 1  IDiag  1:
 RMSU=  3.73D-04    CP:  1.01D+00  1.82D+00  6.51D-01
 E= -835.422775931169     Delta-E=       -0.005648991851 Rises=F Damp=F
 DIIS: error= 4.02D-03 at cycle   4 NSaved=   4.
 NSaved= 4 IEnMin= 4 EnMin= -835.422775931169     IErMin= 4 ErrMin= 4.02D-03
 ErrMax= 4.02D-03  0.00D+00 EMaxC= 1.00D-01 BMatC= 4.50D-03 BMatP= 2.52D-02
 IDIUse=3 WtCom= 9.60D-01 WtEn= 4.02D-02
 Coeff-Com: -0.302D-01 0.341D-01 0.317D+00 0.679D+00
 Coeff-En:   0.000D+00 0.000D+00 0.156D+00 0.844D+00
 Coeff:     -0.289D-01 0.327D-01 0.311D+00 0.685D+00
 Gap=     0.183 Goal=   None    Shift=    0.000
 Gap=     0.091 Goal=   None    Shift=    0.000
 RMSDP=1.61D-04 MaxDP=5.53D-03 DE=-5.65D-03 OVMax= 1.23D-02

 Cycle   5  Pass 1  IDiag  1:
 RMSU=  6.92D-05    CP:  1.01D+00  1.78D+00  7.78D-01  7.60D-01
 E= -835.423866500929     Delta-E=       -0.001090569760 Rises=F Damp=F
 DIIS: error= 4.66D-04 at cycle   5 NSaved=   5.
 NSaved= 5 IEnMin= 5 EnMin= -835.423866500929     IErMin= 5 ErrMin= 4.66D-04
 ErrMax= 4.66D-04  0.00D+00 EMaxC= 1.00D-01 BMatC= 8.26D-05 BMatP= 4.50D-03
 IDIUse=3 WtCom= 9.95D-01 WtEn= 4.66D-03
 Coeff-Com:  0.527D-03-0.746D-02 0.112D+00 0.268D+00 0.626D+00
 Coeff-En:   0.000D+00 0.000D+00 0.000D+00 0.000D+00 0.100D+01
 Coeff:      0.525D-03-0.742D-02 0.112D+00 0.267D+00 0.628D+00
 Gap=     0.183 Goal=   None    Shift=    0.000
 Gap=     0.093 Goal=   None    Shift=    0.000
 RMSDP=5.00D-05 MaxDP=2.57D-03 DE=-1.09D-03 OVMax= 7.31D-03

 Cycle   6  Pass 1  IDiag  1:
 RMSU=  4.23D-05    CP:  1.01D+00  1.76D+00  7.85D-01  7.88D-01  7.05D-01
 E= -835.423883845950     Delta-E=       -0.000017345021 Rises=F Damp=F
 DIIS: error= 3.65D-04 at cycle   6 NSaved=   6.
 NSaved= 6 IEnMin= 6 EnMin= -835.423883845950     IErMin= 6 ErrMin= 3.65D-04
 ErrMax= 3.65D-04  0.00D+00 EMaxC= 1.00D-01 BMatC= 4.49D-05 BMatP= 8.26D-05
 IDIUse=3 WtCom= 9.96D-01 WtEn= 3.65D-03
 Coeff-Com:  0.100D-01-0.150D-01-0.233D-01-0.373D-01 0.433D+00 0.632D+00
 Coeff-En:   0.000D+00 0.000D+00 0.000D+00 0.000D+00 0.308D+00 0.692D+00
 Coeff:      0.100D-01-0.149D-01-0.232D-01-0.371D-01 0.433D+00 0.633D+00
 Gap=     0.183 Goal=   None    Shift=    0.000
 Gap=     0.092 Goal=   None    Shift=    0.000
 RMSDP=2.81D-05 MaxDP=1.59D-03 DE=-1.73D-05 OVMax= 4.62D-03

 Cycle   7  Pass 1  IDiag  1:
 RMSU=  1.42D-05    CP:  1.01D+00  1.77D+00  7.89D-01  8.00D-01  1.00D+00
                    CP:  7.35D-01
 E= -835.423900876874     Delta-E=       -0.000017030923 Rises=F Damp=F
 DIIS: error= 8.06D-05 at cycle   7 NSaved=   7.
 NSaved= 7 IEnMin= 7 EnMin= -835.423900876874     IErMin= 7 ErrMin= 8.06D-05
 ErrMax= 8.06D-05  0.00D+00 EMaxC= 1.00D-01 BMatC= 2.99D-06 BMatP= 4.49D-05
 IDIUse=1 WtCom= 1.00D+00 WtEn= 0.00D+00
 Coeff-Com:  0.196D-02-0.248D-02-0.204D-01-0.424D-01 0.813D-01 0.256D+00
 Coeff-Com:  0.726D+00
 Coeff:      0.196D-02-0.248D-02-0.204D-01-0.424D-01 0.813D-01 0.256D+00
 Coeff:      0.726D+00
 Gap=     0.184 Goal=   None    Shift=    0.000
 Gap=     0.092 Goal=   None    Shift=    0.000
 RMSDP=8.76D-06 MaxDP=5.10D-04 DE=-1.70D-05 OVMax= 1.26D-03

 Cycle   8  Pass 1  IDiag  1:
 RMSU=  5.00D-06    CP:  1.01D+00  1.77D+00  7.91D-01  8.03D-01  1.04D+00
                    CP:  8.81D-01  1.11D+00
 E= -835.423902599615     Delta-E=       -0.000001722741 Rises=F Damp=F
 DIIS: error= 3.29D-05 at cycle   8 NSaved=   8.
 NSaved= 8 IEnMin= 8 EnMin= -835.423902599615     IErMin= 8 ErrMin= 3.29D-05
 ErrMax= 3.29D-05  0.00D+00 EMaxC= 1.00D-01 BMatC= 3.71D-07 BMatP= 2.99D-06
 IDIUse=1 WtCom= 1.00D+00 WtEn= 0.00D+00
 Coeff-Com: -0.230D-02 0.336D-02 0.250D-02 0.500D-02-0.734D-01-0.884D-01
 Coeff-Com:  0.203D-01 0.113D+01
 Coeff:     -0.230D-02 0.336D-02 0.250D-02 0.500D-02-0.734D-01-0.884D-01
 Coeff:      0.203D-01 0.113D+01
 Gap=     0.184 Goal=   None    Shift=    0.000
 Gap=     0.092 Goal=   None    Shift=    0.000
 RMSDP=7.35D-06 MaxDP=4.62D-04 DE=-1.72D-06 OVMax= 1.08D-03

 Cycle   9  Pass 1  IDiag  1:
 RMSU=  1.97D-06    CP:  1.01D+00  1.77D+00  7.91D-01  8.06D-01  1.08D+00
                    CP:  9.70D-01  1.43D+00  1.56D+00
 E= -835.423903219485     Delta-E=       -0.000000619870 Rises=F Damp=F
 DIIS: error= 1.91D-05 at cycle   9 NSaved=   9.
 NSaved= 9 IEnMin= 9 EnMin= -835.423903219485     IErMin= 9 ErrMin= 1.91D-05
 ErrMax= 1.91D-05  0.00D+00 EMaxC= 1.00D-01 BMatC= 6.56D-08 BMatP= 3.71D-07
 IDIUse=1 WtCom= 1.00D+00 WtEn= 0.00D+00
 Coeff-Com:  0.133D-03-0.228D-03 0.459D-02 0.992D-02-0.102D-02-0.571D-01
 Coeff-Com: -0.170D+00-0.150D+00 0.136D+01
 Coeff:      0.133D-03-0.228D-03 0.459D-02 0.992D-02-0.102D-02-0.571D-01
 Coeff:     -0.170D+00-0.150D+00 0.136D+01
 Gap=     0.184 Goal=   None    Shift=    0.000
 Gap=     0.092 Goal=   None    Shift=    0.000
 RMSDP=4.92D-06 MaxDP=3.10D-04 DE=-6.20D-07 OVMax= 7.22D-04

 Cycle  10  Pass 1  IDiag  1:
 RMSU=  7.20D-07    CP:  1.01D+00  1.77D+00  7.91D-01  8.08D-01  1.10D+00
                    CP:  1.01D+00  1.64D+00  2.09D+00  1.57D+00
 E= -835.423903375642     Delta-E=       -0.000000156157 Rises=F Damp=F
 DIIS: error= 4.33D-06 at cycle  10 NSaved=  10.
 NSaved=10 IEnMin=10 EnMin= -835.423903375642     IErMin=10 ErrMin= 4.33D-06
 ErrMax= 4.33D-06  0.00D+00 EMaxC= 1.00D-01 BMatC= 3.72D-09 BMatP= 6.56D-08
 IDIUse=1 WtCom= 1.00D+00 WtEn= 0.00D+00
 Coeff-Com:  0.946D-04-0.142D-03 0.937D-04-0.324D-03 0.586D-02 0.754D-02
 Coeff-Com: -0.344D-02-0.116D+00 0.265D-01 0.108D+01
 Coeff:      0.946D-04-0.142D-03 0.937D-04-0.324D-03 0.586D-02 0.754D-02
 Coeff:     -0.344D-02-0.116D+00 0.265D-01 0.108D+01
 Gap=     0.184 Goal=   None    Shift=    0.000
 Gap=     0.092 Goal=   None    Shift=    0.000
 RMSDP=1.06D-06 MaxDP=6.30D-05 DE=-1.56D-07 OVMax= 1.67D-04

 Cycle  11  Pass 1  IDiag  1:
 RMSU=  1.88D-07    CP:  1.01D+00  1.77D+00  7.92D-01  8.08D-01  1.11D+00
                    CP:  1.02D+00  1.68D+00  2.19D+00  1.77D+00  1.28D+00
 E= -835.423903382976     Delta-E=       -0.000000007334 Rises=F Damp=F
 DIIS: error= 9.21D-07 at cycle  11 NSaved=  11.
 NSaved=11 IEnMin=11 EnMin= -835.423903382976     IErMin=11 ErrMin= 9.21D-07
 ErrMax= 9.21D-07  0.00D+00 EMaxC= 1.00D-01 BMatC= 3.04D-10 BMatP= 3.72D-09
 IDIUse=1 WtCom= 1.00D+00 WtEn= 0.00D+00
 Coeff-Com:  0.141D-04-0.173D-04-0.338D-03-0.691D-03 0.491D-03 0.464D-02
 Coeff-Com:  0.113D-01 0.471D-03-0.890D-01 0.564D-01 0.102D+01
 Coeff:      0.141D-04-0.173D-04-0.338D-03-0.691D-03 0.491D-03 0.464D-02
 Coeff:      0.113D-01 0.471D-03-0.890D-01 0.564D-01 0.102D+01
 Gap=     0.184 Goal=   None    Shift=    0.000
 Gap=     0.092 Goal=   None    Shift=    0.000
 RMSDP=2.23D-07 MaxDP=1.28D-05 DE=-7.33D-09 OVMax= 3.47D-05

 Cycle  12  Pass 1  IDiag  1:
 RMSU=  6.61D-08    CP:  1.01D+00  1.77D+00  7.92D-01  8.08D-01  1.11D+00
                    CP:  1.02D+00  1.69D+00  2.21D+00  1.80D+00  1.42D+00
                    CP:  1.29D+00
 E= -835.423903383432     Delta-E=       -0.000000000456 Rises=F Damp=F
 DIIS: error= 4.83D-07 at cycle  12 NSaved=  12.
 NSaved=12 IEnMin=12 EnMin= -835.423903383432     IErMin=12 ErrMin= 4.83D-07
 ErrMax= 4.83D-07  0.00D+00 EMaxC= 1.00D-01 BMatC= 6.95D-11 BMatP= 3.04D-10
 IDIUse=1 WtCom= 1.00D+00 WtEn= 0.00D+00
 Coeff-Com: -0.740D-05 0.120D-04-0.113D-03-0.154D-03-0.562D-03 0.348D-03
 Coeff-Com:  0.365D-02 0.145D-01-0.292D-01-0.117D+00 0.257D+00 0.871D+00
 Coeff:     -0.740D-05 0.120D-04-0.113D-03-0.154D-03-0.562D-03 0.348D-03
 Coeff:      0.365D-02 0.145D-01-0.292D-01-0.117D+00 0.257D+00 0.871D+00
 Gap=     0.184 Goal=   None    Shift=    0.000
 Gap=     0.092 Goal=   None    Shift=    0.000
 RMSDP=7.95D-08 MaxDP=4.72D-06 DE=-4.56D-10 OVMax= 1.18D-05

 Cycle  13  Pass 1  IDiag  1:
 RMSU=  3.00D-08    CP:  1.01D+00  1.77D+00  7.92D-01  8.08D-01  1.11D+00
                    CP:  1.02D+00  1.69D+00  2.22D+00  1.82D+00  1.45D+00
                    CP:  1.51D+00  1.24D+00
 E= -835.423903383499     Delta-E=       -0.000000000067 Rises=F Damp=F
 DIIS: error= 2.17D-07 at cycle  13 NSaved=  13.
 NSaved=13 IEnMin=13 EnMin= -835.423903383499     IErMin=13 ErrMin= 2.17D-07
 ErrMax= 2.17D-07  0.00D+00 EMaxC= 1.00D-01 BMatC= 1.52D-11 BMatP= 6.95D-11
 IDIUse=1 WtCom= 1.00D+00 WtEn= 0.00D+00
 Coeff-Com: -0.853D-05 0.113D-04 0.717D-04 0.160D-03-0.250D-03-0.113D-02
 Coeff-Com: -0.211D-02 0.290D-02 0.158D-01-0.405D-01-0.161D+00 0.185D+00
 Coeff-Com:  0.100D+01
 Coeff:     -0.853D-05 0.113D-04 0.717D-04 0.160D-03-0.250D-03-0.113D-02
 Coeff:     -0.211D-02 0.290D-02 0.158D-01-0.405D-01-0.161D+00 0.185D+00
 Coeff:      0.100D+01
 Gap=     0.184 Goal=   None    Shift=    0.000
 Gap=     0.092 Goal=   None    Shift=    0.000
 RMSDP=4.27D-08 MaxDP=2.59D-06 DE=-6.65D-11 OVMax= 6.18D-06

 Cycle  14  Pass 1  IDiag  1:
 RMSU=  1.51D-08    CP:  1.01D+00  1.77D+00  7.92D-01  8.08D-01  1.11D+00
                    CP:  1.02D+00  1.69D+00  2.22D+00  1.82D+00  1.47D+00
                    CP:  1.61D+00  1.60D+00  1.32D+00
 E= -835.423903383518     Delta-E=       -0.000000000019 Rises=F Damp=F
 DIIS: error= 9.95D-08 at cycle  14 NSaved=  14.
 NSaved=14 IEnMin=14 EnMin= -835.423903383518     IErMin=14 ErrMin= 9.95D-08
 ErrMax= 9.95D-08  0.00D+00 EMaxC= 1.00D-01 BMatC= 2.94D-12 BMatP= 1.52D-11
 IDIUse=1 WtCom= 1.00D+00 WtEn= 0.00D+00
 Coeff-Com:  0.218D-06-0.431D-06 0.265D-04 0.375D-04 0.608D-04-0.179D-03
 Coeff-Com: -0.929D-03-0.226D-02 0.821D-02 0.136D-01-0.826D-01-0.132D+00
 Coeff-Com:  0.270D+00 0.927D+00
 Coeff:      0.218D-06-0.431D-06 0.265D-04 0.375D-04 0.608D-04-0.179D-03
 Coeff:     -0.929D-03-0.226D-02 0.821D-02 0.136D-01-0.826D-01-0.132D+00
 Coeff:      0.270D+00 0.927D+00
 Gap=     0.184 Goal=   None    Shift=    0.000
 Gap=     0.092 Goal=   None    Shift=    0.000
 RMSDP=1.95D-08 MaxDP=8.82D-07 DE=-1.92D-11 OVMax= 3.59D-06

 Cycle  15  Pass 1  IDiag  1:
 RMSU=  6.53D-09    CP:  1.01D+00  1.77D+00  7.92D-01  8.08D-01  1.11D+00
                    CP:  1.02D+00  1.69D+00  2.22D+00  1.82D+00  1.47D+00
                    CP:  1.65D+00  1.75D+00  1.68D+00  1.34D+00
 E= -835.423903383531     Delta-E=       -0.000000000013 Rises=F Damp=F
 DIIS: error= 3.53D-08 at cycle  15 NSaved=  15.
 NSaved=15 IEnMin=15 EnMin= -835.423903383531     IErMin=15 ErrMin= 3.53D-08
 ErrMax= 3.53D-08  0.00D+00 EMaxC= 1.00D-01 BMatC= 3.73D-13 BMatP= 2.94D-12
 IDIUse=1 WtCom= 1.00D+00 WtEn= 0.00D+00
 Coeff-Com:  0.140D-05-0.191D-05-0.705D-05-0.145D-04 0.283D-04 0.135D-03
 Coeff-Com:  0.201D-03-0.407D-03-0.166D-02 0.591D-02 0.200D-01-0.309D-01
 Coeff-Com: -0.130D+00 0.443D-02 0.113D+01
 Coeff:      0.140D-05-0.191D-05-0.705D-05-0.145D-04 0.283D-04 0.135D-03
 Coeff:      0.201D-03-0.407D-03-0.166D-02 0.591D-02 0.200D-01-0.309D-01
 Coeff:     -0.130D+00 0.443D-02 0.113D+01
 Gap=     0.184 Goal=   None    Shift=    0.000
 Gap=     0.092 Goal=   None    Shift=    0.000
 RMSDP=1.16D-08 MaxDP=6.69D-07 DE=-1.27D-11 OVMax= 2.53D-06

 Cycle  16  Pass 1  IDiag  1:
 RMSU=  2.68D-09    CP:  1.01D+00  1.77D+00  7.92D-01  8.08D-01  1.11D+00
                    CP:  1.02D+00  1.69D+00  2.22D+00  1.82D+00  1.47D+00
                    CP:  1.66D+00  1.82D+00  1.86D+00  1.78D+00  1.79D+00
 E= -835.423903383525     Delta-E=        0.000000000005 Rises=F Damp=F
 DIIS: error= 2.36D-08 at cycle  16 NSaved=  16.
 NSaved=16 IEnMin=15 EnMin= -835.423903383531     IErMin=16 ErrMin= 2.36D-08
 ErrMax= 2.36D-08  0.00D+00 EMaxC= 1.00D-01 BMatC= 1.19D-13 BMatP= 3.73D-13
 IDIUse=1 WtCom= 1.00D+00 WtEn= 0.00D+00
 Coeff-Com: -0.492D-06 0.682D-06-0.334D-05-0.436D-05-0.848D-05 0.248D-05
 Coeff-Com:  0.130D-03 0.434D-03-0.116D-02-0.290D-02 0.932D-02 0.273D-01
 Coeff-Com: -0.207D-01-0.149D+00-0.238D+00 0.137D+01
 Coeff:     -0.492D-06 0.682D-06-0.334D-05-0.436D-05-0.848D-05 0.248D-05
 Coeff:      0.130D-03 0.434D-03-0.116D-02-0.290D-02 0.932D-02 0.273D-01
 Coeff:     -0.207D-01-0.149D+00-0.238D+00 0.137D+01
 Gap=     0.184 Goal=   None    Shift=    0.000
 Gap=     0.092 Goal=   None    Shift=    0.000
 RMSDP=9.14D-09 MaxDP=5.54D-07 DE= 5.34D-12 OVMax= 2.09D-06

 SCF Done:  E(UB3LYP) =  -835.423903384     A.U. after   16 cycles
            NFock= 16  Conv=0.91D-08     -V/T= 2.0016
 <Sx>= 0.0000 <Sy>= 0.0000 <Sz>= 0.5000 <S**2>= 0.7576 S= 0.5038
 <L.S>= 0.000000000000E+00
 KE= 8.341281167367D+02 PE=-2.228160861135D+03 EE= 4.318766030587D+02
 Annihilation of the first spin contaminant:
 S**2 before annihilation     0.7576,   after     0.7500
 Leave Link  502 at Wed Aug  3 20:38:44 2016, MaxMem=    33554432 cpu:       175.7
 (Enter /home/proyectos/fulerenos/M3C-v2.0/M3C-deps_CCC/g09-AM64L-G09RevC.01/l801.exe)
 DoSCS=F DFT=T ScalE2(SS,OS)=  1.000000  1.000000
 Range of M.O.s used for correlation:     1   153
 NBasis=   153 NAE=    20 NBE=    19 NFC=     0 NFV=     0
 NROrb=    153 NOA=    20 NOB=    19 NVA=   133 NVB=   134

 **** Warning!!: The largest alpha MO coefficient is  0.31620098D+02


 **** Warning!!: The largest beta MO coefficient is  0.31787729D+02


 **** Warning!!: The smallest beta delta epsilon is  0.92181877D-01

 Leave Link  801 at Wed Aug  3 20:38:44 2016, MaxMem=    33554432 cpu:         0.1
 (Enter /home/proyectos/fulerenos/M3C-v2.0/M3C-deps_CCC/g09-AM64L-G09RevC.01/l1101.exe)
 Using compressed storage, NAtomX=     5.
 Will process      6 centers per pass.
 Leave Link 1101 at Wed Aug  3 20:38:44 2016, MaxMem=    33554432 cpu:         1.0
 (Enter /home/proyectos/fulerenos/M3C-v2.0/M3C-deps_CCC/g09-AM64L-G09RevC.01/l1102.exe)
 Symmetrizing basis deriv contribution to polar:
 IMax=3 JMax=2 DiffMx= 0.00D+00
 Leave Link 1102 at Wed Aug  3 20:38:44 2016, MaxMem=    33554432 cpu:         0.1
 (Enter /home/proyectos/fulerenos/M3C-v2.0/M3C-deps_CCC/g09-AM64L-G09RevC.01/l1110.exe)
 Forming Gx(P) for the SCF density, NAtomX=     5.
 Integral derivatives from FoFJK, PRISM(SPDF).
 Do as many integral derivatives as possible in FoFJK.
 G2DrvN: MDV=      33554288.
 G2DrvN: will do     6 centers at a time, making    1 passes.
 Calling FoFCou, ICntrl=  3107 FMM=F I1Cent=   0 AccDes= 0.00D+00.
 FoFJK:  IHMeth= 1 ICntrl=    3107 DoSepK=F KAlg= 0 I1Cent=   0 FoldK=F
 IRaf=         0 NMat=   1 IRICut=       1 DoRegI=T DoRafI=F ISym2E= 0.
 FoFCou: FMM=F IPFlag=           0 FMFlag=      100000 FMFlg1=           0
         NFxFlg=           0 DoJE=F BraDBF=F KetDBF=F FulRan=T
         wScrn=  0.000000 ICntrl=    3107 IOpCl=  1 I1Cent=           0 NGrid=           0
         NMat0=    1 NMatS0=      1 NMatT0=    0 NMatD0=    1 NMtDS0=    0 NMtDT0=    0
 Symmetry not used in FoFCou.
 End of G2Drv F.D. properties file   721 does not exist.
 End of G2Drv F.D. properties file   722 does not exist.
 End of G2Drv F.D. properties file   788 does not exist.
 Leave Link 1110 at Wed Aug  3 20:39:10 2016, MaxMem=    33554432 cpu:        96.8
 (Enter /home/proyectos/fulerenos/M3C-v2.0/M3C-deps_CCC/g09-AM64L-G09RevC.01/l1002.exe)
 Minotr:  UHF open shell wavefunction.
          IDoAtm=11111
          Direct CPHF calculation.
          Differentiating once with respect to electric field.
                with respect to dipole field.
          Differentiating once with respect to nuclear coordinates.
          Requested convergence is 1.0D-08 RMS, and 1.0D-07 maximum.
          Secondary convergence is 1.0D-12 RMS, and 1.0D-12 maximum.
          NewPWx=T KeepS1=F KeepF1=F KeepIn=T MapXYZ=F SortEE=F KeepMc=T.
          MDV=      33554072 using IRadAn=       2.
 Generate precomputed XC quadrature information.
          Solving linear equations simultaneously, MaxMat=       0.
 FoFJK:  IHMeth= 1 ICntrl=       0 DoSepK=F KAlg= 0 I1Cent=   0 FoldK=F
 IRaf= 970000000 NMat=  18 IRICut=      45 DoRegI=T DoRafI=T ISym2E= 2.
 FoFCou: FMM=F IPFlag=           0 FMFlag=      100000 FMFlg1=           0
         NFxFlg=           0 DoJE=F BraDBF=F KetDBF=F FulRan=T
         wScrn=  0.000000 ICntrl=       0 IOpCl=  1 I1Cent=           0 NGrid=           0
         NMat0=   18 NMatS0=     18 NMatT0=    0 NMatD0=   18 NMtDS0=    0 NMtDT0=    0
 Integrals replicated using symmetry in FoFCou.
          There are    18 degrees of freedom in the 1st order CPHF.  IDoFFX=6 NUNeed=     3.
     16 vectors produced by pass  0 Test12= 2.89D-14 5.56D-09 XBig12= 3.12D+02 1.12D+01.
 AX will form    16 AO Fock derivatives at one time.
     15 vectors produced by pass  1 Test12= 2.89D-14 5.56D-09 XBig12= 6.48D+01 1.89D+00.
     15 vectors produced by pass  2 Test12= 2.89D-14 5.56D-09 XBig12= 1.77D+00 2.49D-01.
     15 vectors produced by pass  3 Test12= 2.89D-14 5.56D-09 XBig12= 7.00D-02 8.91D-02.
     15 vectors produced by pass  4 Test12= 2.89D-14 5.56D-09 XBig12= 1.92D-03 8.49D-03.
     15 vectors produced by pass  5 Test12= 2.89D-14 5.56D-09 XBig12= 2.67D-05 8.12D-04.
     15 vectors produced by pass  6 Test12= 2.89D-14 5.56D-09 XBig12= 1.54D-07 5.15D-05.
     11 vectors produced by pass  7 Test12= 2.89D-14 5.56D-09 XBig12= 1.07D-09 4.29D-06.
      4 vectors produced by pass  8 Test12= 2.89D-14 5.56D-09 XBig12= 6.27D-12 4.02D-07.
      2 vectors produced by pass  9 Test12= 2.89D-14 5.56D-09 XBig12= 3.37D-14 2.22D-08.
      1 vectors produced by pass 10 Test12= 2.89D-14 5.56D-09 XBig12= 6.02D-16 6.03D-09.
 InvSVY:  IOpt=1 It=  1 EMax= 5.33D-15
 Solved reduced A of dimension   124 with    18 vectors.
 FullF1:  Do perturbations    1 to     3.
 Isotropic polarizability for W=    0.000000       47.11 Bohr**3.
 End of Minotr F.D. properties file   721 does not exist.
 End of Minotr F.D. properties file   722 does not exist.
 End of Minotr F.D. properties file   788 does not exist.
 Leave Link 1002 at Wed Aug  3 20:40:24 2016, MaxMem=    33554432 cpu:       292.8
 (Enter /home/proyectos/fulerenos/M3C-v2.0/M3C-deps_CCC/g09-AM64L-G09RevC.01/l601.exe)
 Copying SCF densities to generalized density rwf, IOpCl= 1 IROHF=0.

 **********************************************************************

            Population analysis using the SCF density.

 **********************************************************************

 Orbital symmetries:
 Alpha Orbitals:
       Occupied  (A) (A) (A) (A) (A) (A) (A) (A) (A) (A) (A) (A)
                 (A) (A) (A) (A) (A) (A) (A) (A)
       Virtual   (A) (A) (A) (A) (A) (A) (A) (A) (A) (A) (A) (A)
                 (A) (A) (A) (A) (A) (A) (A) (A) (A) (A) (A) (A)
                 (A) (A) (A) (A) (A) (A) (A) (A) (A) (A) (A) (A)
                 (A) (A) (A) (A) (A) (A) (A) (A) (A) (A) (A) (A)
                 (A) (A) (A) (A) (A) (A) (A) (A) (A) (A) (A) (A)
                 (A) (A) (A) (A) (A) (A) (A) (A) (A) (A) (A) (A)
                 (A) (A) (A) (A) (A) (A) (A) (A) (A) (A) (A) (A)
                 (A) (A) (A) (A) (A) (A) (A) (A) (A) (A) (A) (A)
                 (A) (A) (A) (A) (A) (A) (A) (A) (A) (A) (A) (A)
                 (A) (A) (A) (A) (A) (A) (A) (A) (A) (A) (A) (A)
                 (A) (A) (A) (A) (A) (A) (A) (A) (A) (A) (A) (A)
                 (A)
 Beta  Orbitals:
       Occupied  (A) (A) (A) (A) (A) (A) (A) (A) (A) (A) (A) (A)
                 (A) (A) (A) (A) (A) (A) (A)
       Virtual   (A) (A) (A) (A) (A) (A) (A) (A) (A) (A) (A) (A)
                 (A) (A) (A) (A) (A) (A) (A) (A) (A) (A) (A) (A)
                 (A) (A) (A) (A) (A) (A) (A) (A) (A) (A) (A) (A)
                 (A) (A) (A) (A) (A) (A) (A) (A) (A) (A) (A) (A)
                 (A) (A) (A) (A) (A) (A) (A) (A) (A) (A) (A) (A)
                 (A) (A) (A) (A) (A) (A) (A) (A) (A) (A) (A) (A)
                 (A) (A) (A) (A) (A) (A) (A) (A) (A) (A) (A) (A)
                 (A) (A) (A) (A) (A) (A) (A) (A) (A) (A) (A) (A)
                 (A) (A) (A) (A) (A) (A) (A) (A) (A) (A) (A) (A)
                 (A) (A) (A) (A) (A) (A) (A) (A) (A) (A) (A) (A)
                 (A) (A) (A) (A) (A) (A) (A) (A) (A) (A) (A) (A)
                 (A) (A)
 The electronic state is 2-A.
 Alpha  occ. eigenvalues --  -89.15705 -89.13461 -10.51577  -8.23930  -8.21907
 Alpha  occ. eigenvalues --   -6.20801  -6.19830  -6.19480  -6.18213  -6.17805
 Alpha  occ. eigenvalues --   -6.17546  -1.10861  -1.00831  -0.84634  -0.70509
 Alpha  occ. eigenvalues --   -0.69881  -0.61243  -0.60479  -0.54796  -0.51373
 Alpha virt. eigenvalues --   -0.33007  -0.23227  -0.17440  -0.16276  -0.14555
 Alpha virt. eigenvalues --   -0.13014  -0.10427  -0.10059  -0.07888  -0.07311
 Alpha virt. eigenvalues --   -0.06496  -0.06304  -0.05907  -0.05551  -0.03646
 Alpha virt. eigenvalues --   -0.01468  -0.01338  -0.01087  -0.00701   0.00677
 Alpha virt. eigenvalues --    0.02891   0.05519   0.07216   0.08741   0.10424
 Alpha virt. eigenvalues --    0.11414   0.12361   0.14555   0.15019   0.15241
 Alpha virt. eigenvalues --    0.17159   0.17271   0.19476   0.25671   0.25749
 Alpha virt. eigenvalues --    0.27606   0.29928   0.34866   0.37739   0.41940
 Alpha virt. eigenvalues --    0.46014   0.46021   0.47278   0.52323   0.59718
 Alpha virt. eigenvalues --    0.61539   0.66435   0.66480   0.69689   0.70083
 Alpha virt. eigenvalues --    0.72188   0.73350   0.75277   0.76092   0.77052
 Alpha virt. eigenvalues --    0.79589   0.80015   0.80773   0.82329   0.85395
 Alpha virt. eigenvalues --    0.86658   1.04395   1.08214   1.21712   1.25463
 Alpha virt. eigenvalues --    1.25869   1.33733   1.35211   1.37574   1.39372
 Alpha virt. eigenvalues --    1.39639   1.42516   1.44570   1.48029   1.50345
 Alpha virt. eigenvalues --    1.51764   1.54802   1.61365   1.67145   1.70449
 Alpha virt. eigenvalues --    1.81354   1.82228   1.82640   1.97676   2.00917
 Alpha virt. eigenvalues --    2.02685   2.14056   2.17561   2.20724   2.42572
 Alpha virt. eigenvalues --    2.52382   2.54991   2.73871   2.82191   2.85706
 Alpha virt. eigenvalues --    2.95064   3.08137   3.12057   3.25516   3.39621
 Alpha virt. eigenvalues --    3.48324   3.57330   3.71947   3.81045   3.95666
 Alpha virt. eigenvalues --    4.12756   4.32493   4.34823   4.37255   4.53258
 Alpha virt. eigenvalues --    4.53404   4.60611   4.62659   4.76998   5.01032
 Alpha virt. eigenvalues --    5.25249   5.43114   6.78006   6.94239   6.95419
 Alpha virt. eigenvalues --    7.07856   7.30562   8.14991   8.20458  17.04068
 Alpha virt. eigenvalues --   17.07636  17.10685  17.32749  17.59241  17.62224
 Alpha virt. eigenvalues --   23.66362 188.99781 189.09149
  Beta  occ. eigenvalues --  -89.15070 -89.13434 -10.51653  -8.23349  -8.21882
  Beta  occ. eigenvalues --   -6.19484  -6.19048  -6.18879  -6.18149  -6.17724
  Beta  occ. eigenvalues --   -6.17574  -1.09786  -0.98971  -0.83285  -0.69270
  Beta  occ. eigenvalues --   -0.68662  -0.60920  -0.59906  -0.50613
  Beta virt. eigenvalues --   -0.41395  -0.32844  -0.22777  -0.17132  -0.15984
  Beta virt. eigenvalues --   -0.13791  -0.12751  -0.10137  -0.10041  -0.07429
  Beta virt. eigenvalues --   -0.06768  -0.06276  -0.06090  -0.05553  -0.05028
  Beta virt. eigenvalues --   -0.03039  -0.01242  -0.01233  -0.00669   0.00605
  Beta virt. eigenvalues --    0.01123   0.02906   0.07184   0.07879   0.09364
  Beta virt. eigenvalues --    0.10709   0.11762   0.12748   0.14911   0.15173
  Beta virt. eigenvalues --    0.16076   0.17310   0.17410   0.20380   0.25796
  Beta virt. eigenvalues --    0.26693   0.27806   0.30450   0.35264   0.37944
  Beta virt. eigenvalues --    0.42395   0.46077   0.46549   0.47211   0.52556
  Beta virt. eigenvalues --    0.60140   0.61546   0.66601   0.67203   0.70994
  Beta virt. eigenvalues --    0.72161   0.73097   0.73994   0.76680   0.77422
  Beta virt. eigenvalues --    0.78293   0.80176   0.80386   0.81668   0.82736
  Beta virt. eigenvalues --    0.85988   0.87814   1.05014   1.08763   1.21773
  Beta virt. eigenvalues --    1.25725   1.26149   1.36516   1.38402   1.39897
  Beta virt. eigenvalues --    1.41417   1.42495   1.42828   1.46689   1.48767
  Beta virt. eigenvalues --    1.51353   1.52342   1.56459   1.61327   1.67945
  Beta virt. eigenvalues --    1.71398   1.81688   1.83250   1.83550   1.97878
  Beta virt. eigenvalues --    2.01066   2.03282   2.14513   2.18518   2.21374
  Beta virt. eigenvalues --    2.42837   2.52627   2.54717   2.73964   2.82130
  Beta virt. eigenvalues --    2.85786   2.95047   3.08539   3.11934   3.25900
  Beta virt. eigenvalues --    3.39845   3.48650   3.57281   3.71942   3.81077
  Beta virt. eigenvalues --    3.96523   4.13571   4.33927   4.36411   4.37235
  Beta virt. eigenvalues --    4.53530   4.54017   4.60773   4.62920   4.78111
  Beta virt. eigenvalues --    5.01512   5.26163   5.43337   6.77799   6.93923
  Beta virt. eigenvalues --    6.95148   7.07972   7.30698   8.15420   8.20800
  Beta virt. eigenvalues --   17.04492  17.07753  17.12839  17.33172  17.59528
  Beta virt. eigenvalues --   17.62576  23.66295 189.00268 189.09266
          Condensed to atoms (all electrons):
               1          2          3          4          5
     1  S   15.492054   0.047166   0.281945  -0.011919  -0.071392
     2  S    0.047166  15.252821   0.332865   0.299223  -0.064157
     3  C    0.281945   0.332865   4.750501   0.021597   0.435694
     4  H   -0.011919   0.299223   0.021597   0.505530   0.001418
     5  H   -0.071392  -0.064157   0.435694   0.001418   0.454214
          Atomic-Atomic Spin Densities.
               1          2          3          4          5
     1  S    1.045452  -0.010872  -0.041387   0.004514  -0.008550
     2  S   -0.010872   0.034205   0.010898   0.001903  -0.002209
     3  C   -0.041387   0.010898  -0.046459  -0.001226   0.014967
     4  H    0.004514   0.001903  -0.001226  -0.000662  -0.000168
     5  H   -0.008550  -0.002209   0.014967  -0.000168   0.031726
 Mulliken charges and spin densities:
               1          2
     1  S    0.262145   0.989156
     2  S    0.132082   0.033926
     3  C    0.177398  -0.063207
     4  H    0.184152   0.004361
     5  H    0.244223   0.035764
 Sum of Mulliken charges =   1.00000   1.00000
 Mulliken charges and spin densities with hydrogens summed into heavy atoms:
               1          2
     1  S    0.262145   0.989156
     2  S    0.316234   0.038287
     3  C    0.421621  -0.027443
 APT charges:
               1
     1  S    0.186336
     2  S    0.114827
     3  C    0.420895
     4  H    0.105015
     5  H    0.172928
 Sum of APT charges =   1.00000
 APT charges with hydrogens summed into heavy atoms:
               1
     1  S    0.186336
     2  S    0.219842
     3  C    0.593823
 Electronic spatial extent (au):  <R**2>=            345.4179
 Charge=              1.0000 electrons
 Dipole moment (field-independent basis, Debye):
    X=             -0.1866    Y=             -0.0026    Z=              0.0016  Tot=              0.1866
 Quadrupole moment (field-independent basis, Debye-Ang):
   XX=            -18.4667   YY=            -22.8956   ZZ=            -30.4096
   XY=             -1.5255   XZ=             -0.0004   YZ=              0.0016
 Traceless Quadrupole moment (field-independent basis, Debye-Ang):
   XX=              5.4573   YY=              1.0284   ZZ=             -6.4857
   XY=             -1.5255   XZ=             -0.0004   YZ=              0.0016
 Octapole moment (field-independent basis, Debye-Ang**2):
  XXX=             -3.1303  YYY=              1.3362  ZZZ=              0.0024  XYY=              1.9278
  XXY=             -4.7621  XXZ=              0.0063  XZZ=             -0.3124  YZZ=             -0.4307
  YYZ=              0.0075  XYZ=             -0.0016
 Hexadecapole moment (field-independent basis, Debye-Ang**3):
 XXXX=           -306.2381 YYYY=            -43.0201 ZZZZ=            -36.2468 XXXY=             -3.8645
 XXXZ=             -0.0030 YYYX=             -4.0913 YYYZ=              0.0107 ZZZX=             -0.0007
 ZZZY=              0.0009 XXYY=            -61.5940 XXZZ=            -65.7644 YYZZ=            -15.9258
 XXYZ=             -0.0028 YYXZ=              0.0002 ZZXY=             -0.1967
 N-N= 1.267322379562D+02 E-N=-2.228160861185D+03  KE= 8.341281167367D+02
  Exact polarizability:  72.092  -0.026  38.178  -0.002   0.001  31.053
 Approx polarizability: 146.976   2.333  65.496  -0.004  -0.007  48.525
                          Isotropic Fermi Contact Couplings
        Atom                 a.u.       MegaHertz       Gauss      10(-4) cm-1
     1  S(33)              0.04347      14.93053       5.32758       4.98029
     2  S(33)             -0.00943      -3.23807      -1.15542      -1.08010
     3  C(13)             -0.02406     -27.05067      -9.65235      -9.02313
     4  H(1)              -0.00065      -2.89895      -1.03442      -0.96699
     5  H(1)               0.02375     106.16150      37.88106      35.41166
 --------------------------------------------------------
       Center         ----  Spin Dipole Couplings  ----
                      3XX-RR        3YY-RR        3ZZ-RR
 --------------------------------------------------------
     1   Atom       -1.209145      3.223373     -2.014228
     2   Atom        0.400756     -0.102699     -0.298056
     3   Atom        0.024037      0.036898     -0.060935
     4   Atom        0.009545     -0.000728     -0.008817
     5   Atom        0.003514      0.007874     -0.011387
 --------------------------------------------------------
                        XY            XZ            YZ
 --------------------------------------------------------
     1   Atom       -2.598535     -0.001238      0.002781
     2   Atom       -0.008535     -0.000371      0.000012
     3   Atom        0.000439     -0.000037      0.000068
     4   Atom       -0.006153      0.000001      0.000000
     5   Atom        0.009165      0.000002      0.000028
 --------------------------------------------------------


 ---------------------------------------------------------------------------------
              Anisotropic Spin Dipole Couplings in Principal Axis System
 ---------------------------------------------------------------------------------

       Atom             a.u.   MegaHertz   Gauss  10(-4) cm-1        Axes

              Baa    -2.4082   -98.733   -35.230   -32.934  0.9080  0.4190 -0.0001
     1 S(33)  Bbb    -2.0142   -82.582   -29.467   -27.546  0.0003 -0.0004  1.0000
              Bcc     4.4224   181.314    64.698    60.480 -0.4190  0.9080  0.0005
 
              Baa    -0.2981   -12.220    -4.360    -4.076  0.0005 -0.0000  1.0000
     2 S(33)  Bbb    -0.1028    -4.217    -1.505    -1.406  0.0169  0.9999  0.0000
              Bcc     0.4009    16.437     5.865     5.483  0.9999 -0.0169 -0.0005
 
              Baa    -0.0609    -8.177    -2.918    -2.728  0.0004 -0.0007  1.0000
     3 C(13)  Bbb     0.0240     3.224     1.150     1.075  0.9994 -0.0340 -0.0005
              Bcc     0.0369     4.953     1.768     1.652  0.0341  0.9994  0.0007
 
              Baa    -0.0088    -4.704    -1.679    -1.569 -0.0001 -0.0001  1.0000
     4 H(1)   Bbb    -0.0036    -1.924    -0.687    -0.642  0.4238  0.9058  0.0001
              Bcc     0.0124     6.629     2.365     2.211  0.9058 -0.4238  0.0000
 
              Baa    -0.0114    -6.076    -2.168    -2.027  0.0011 -0.0020  1.0000
     5 H(1)   Bbb    -0.0037    -1.989    -0.710    -0.663  0.7847 -0.6199 -0.0021
              Bcc     0.0151     8.064     2.878     2.690  0.6199  0.7847  0.0009
 

 ---------------------------------------------------------------------------------

 No NMR shielding tensors so no spin-rotation constants.
 Leave Link  601 at Wed Aug  3 20:40:24 2016, MaxMem=    33554432 cpu:         1.7
 (Enter /home/proyectos/fulerenos/M3C-v2.0/M3C-deps_CCC/g09-AM64L-G09RevC.01/l701.exe)
 Compute integral second derivatives.
 ... and contract with generalized density number  0.
 Leave Link  701 at Wed Aug  3 20:40:25 2016, MaxMem=    33554432 cpu:         1.5
 (Enter /home/proyectos/fulerenos/M3C-v2.0/M3C-deps_CCC/g09-AM64L-G09RevC.01/l702.exe)
 L702 exits ... SP integral derivatives will be done elsewhere.
 Leave Link  702 at Wed Aug  3 20:40:25 2016, MaxMem=    33554432 cpu:         0.1
 (Enter /home/proyectos/fulerenos/M3C-v2.0/M3C-deps_CCC/g09-AM64L-G09RevC.01/l703.exe)
 Compute integral second derivatives, UseDBF=F ICtDFT=           0.
 Integral derivatives from FoFJK, PRISM(SPDF).
 Calling FoFJK, ICntrl=    100127 FMM=F ISym2X=0 I1Cent= 0 IOpClX= 1 NMat=1 NMatS=1 NMatT=0.
 FoFJK:  IHMeth= 1 ICntrl=  100127 DoSepK=F KAlg= 0 I1Cent=   0 FoldK=F
 IRaf=         0 NMat=   1 IRICut=       1 DoRegI=T DoRafI=F ISym2E= 0.
 FoFCou: FMM=F IPFlag=           0 FMFlag=      100000 FMFlg1=         800
         NFxFlg=           0 DoJE=F BraDBF=F KetDBF=F FulRan=T
         wScrn=  0.000000 ICntrl=  100127 IOpCl=  1 I1Cent=           0 NGrid=           0
         NMat0=    1 NMatS0=      1 NMatT0=    0 NMatD0=    1 NMtDS0=    0 NMtDT0=    0
 Symmetry not used in FoFCou.
 Leave Link  703 at Wed Aug  3 20:41:01 2016, MaxMem=    33554432 cpu:       143.7
 (Enter /home/proyectos/fulerenos/M3C-v2.0/M3C-deps_CCC/g09-AM64L-G09RevC.01/l716.exe)
 Dipole        =-7.33972816D-02-1.01966573D-03 6.11480961D-04
 Polarizability= 7.20922223D+01-2.63132317D-02 3.81784535D+01
                -2.17642713D-03 9.86861460D-04 3.10531965D+01
 Full mass-weighted force constant matrix:
 Low frequencies ---  -16.1687   -0.0026    0.0028    0.0044    2.6514   13.0723
 Low frequencies ---  275.3654  480.8948  722.2103
 Diagonal vibrational polarizability:
        3.7143154       1.6661073       2.0203670
 Harmonic frequencies (cm**-1), IR intensities (KM/Mole), Raman scattering
 activities (A**4/AMU), depolarization ratios for plane and unpolarized
 incident light, reduced masses (AMU), force constants (mDyne/A),
 and normal coordinates:
                      1                      2                      3
                      A                      A                      A
 Frequencies --    275.3652               480.8855               722.2103
 Red. masses --      7.0615                 1.4356                 7.3658
 Frc consts  --      0.3155                 0.1956                 2.2636
 IR Inten    --      3.4010                 5.4348                 7.2246
  Atom  AN      X      Y      Z        X      Y      Z        X      Y      Z
     1  16     0.26  -0.09   0.00    -0.00  -0.00  -0.03    -0.20  -0.11   0.00
     2  16    -0.24  -0.08   0.00     0.00  -0.00  -0.06     0.25  -0.09   0.00
     3   6    -0.01   0.40  -0.00    -0.00   0.00   0.16    -0.06   0.48  -0.00
     4   1    -0.74   0.05   0.00    -0.00   0.00   0.98    -0.62   0.13  -0.00
     5   1     0.04   0.39  -0.00    -0.00   0.00  -0.02    -0.10   0.48  -0.00
                      4                      5                      6
                      A                      A                      A
 Frequencies --    861.1224               978.7626              1014.9760
 Red. masses --      1.2586                 1.2199                 2.8280
 Frc consts  --      0.5499                 0.6886                 1.7165
 IR Inten    --     38.2444                27.5946                97.3721
  Atom  AN      X      Y      Z        X      Y      Z        X      Y      Z
     1  16     0.00   0.00   0.01    -0.03  -0.02  -0.00    -0.08  -0.04   0.00
     2  16     0.00  -0.00   0.00    -0.03  -0.01  -0.00    -0.05   0.05  -0.00
     3   6    -0.00   0.00  -0.15     0.06   0.09  -0.00     0.36  -0.04  -0.00
     4   1    -0.00   0.00   0.34     0.79  -0.22   0.00    -0.73   0.22   0.00
     5   1    -0.00  -0.00   0.93     0.55   0.10   0.00     0.53  -0.05   0.00
                      7                      8                      9
                      A                      A                      A
 Frequencies --   1276.0746              2618.5581              3065.4968
 Red. masses --      1.3768                 1.0392                 1.0832
 Frc consts  --      1.3209                 4.1982                 5.9975
 IR Inten    --     15.7978                19.7799                49.9611
  Atom  AN      X      Y      Z        X      Y      Z        X      Y      Z
     1  16     0.02   0.00  -0.00    -0.00  -0.00  -0.00     0.00  -0.00  -0.00
     2  16     0.03   0.01   0.00    -0.01  -0.03   0.00    -0.00  -0.00  -0.00
     3   6    -0.17  -0.05   0.00     0.00   0.00   0.00     0.00  -0.08  -0.00
     4   1    -0.34   0.11  -0.00     0.25   0.97  -0.00    -0.00   0.01  -0.00
     5   1     0.92  -0.04  -0.00    -0.00  -0.01   0.00    -0.00   1.00   0.00

 -------------------
 - Thermochemistry -
 -------------------
 Temperature   298.150 Kelvin.  Pressure   1.00000 Atm.
 Atom     1 has atomic number 16 and mass  31.97207
 Atom     2 has atomic number 16 and mass  31.97207
 Atom     3 has atomic number  6 and mass  12.00000
 Atom     4 has atomic number  1 and mass   1.00783
 Atom     5 has atomic number  1 and mass   1.00783
 Molecular mass:    77.95979 amu.
 Principal axes and moments of inertia in atomic units:
                           1         2         3
     Eigenvalues --    33.92109 528.25373 562.17478
           X            0.99992  -0.01240  -0.00000
           Y            0.01240   0.99992   0.00020
           Z           -0.00000  -0.00020   1.00000
 This molecule is an asymmetric top.
 Rotational symmetry number  1.
 Rotational temperatures (Kelvin)      2.55339     0.16396     0.15407
 Rotational constants (GHZ):          53.20411     3.41643     3.21028
 Zero-point vibrational energy      67549.8 (Joules/Mol)
                                   16.14480 (Kcal/Mol)
 Warning -- explicit consideration of   2 degrees of freedom as
           vibrations may cause significant error
 Vibrational temperatures:    396.19   691.89  1039.10  1238.96  1408.22
          (Kelvin)           1460.32  1835.98  3767.52  4410.56
 
 Zero-point correction=                           0.025728 (Hartree/Particle)
 Thermal correction to Energy=                    0.029505
 Thermal correction to Enthalpy=                  0.030449
 Thermal correction to Gibbs Free Energy=        -0.001438
 Sum of electronic and zero-point Energies=           -835.398175
 Sum of electronic and thermal Energies=              -835.394398
 Sum of electronic and thermal Enthalpies=            -835.393454
 Sum of electronic and thermal Free Energies=         -835.425341
 
                     E (Thermal)             CV                S
                      KCal/Mol        Cal/Mol-Kelvin    Cal/Mol-Kelvin
 Total                   18.515             11.239             67.112
 Electronic               0.000              0.000              1.377
 Translational            0.889              2.981             38.976
 Rotational               0.889              2.981             23.825
 Vibrational             16.737              5.277              2.934
 Vibration     1          0.677              1.719              1.562
 Vibration     2          0.837              1.292              0.708
                       Q            Log10(Q)             Ln(Q)
 Total Bot       0.458608D+01          0.661442          1.523026
 Total V=0       0.313074D+13         12.495647         28.772291
 Vib (Bot)       0.235891D-11        -11.627288        -26.772820
 Vib (Bot)    1  0.699903D+00         -0.154962         -0.356814
 Vib (Bot)    2  0.347525D+00         -0.459014         -1.056920
 Vib (V=0)       0.161034D+01          0.206918          0.476446
 Vib (V=0)    1  0.136015D+01          0.133588          0.307597
 Vib (V=0)    2  0.110891D+01          0.044897          0.103379
 Electronic      0.200000D+01          0.301030          0.693147
 Translational   0.270559D+08          7.432261         17.113414
 Rotational      0.359284D+05          4.555438         10.489284
 
                                                              b3lyp opt
                                                             IR Spectrum
 
     3                  2                                                       1         1                                          
     0                  6                                                       2         0 9    8     7         4       2           
     6                  1                                                       7         1 7    6     2         8       7           
     5                  9                                                       6         5 9    1     2         1       5           
 
     X                  X                                                       X         X X    X     X         X       X           
     X                  X                                                       X         X X    X                                   
     X                  X                                                       X         X X    X                                   
     X                  X                                                                 X X    X                                   
     X                                                                                    X X    X                                   
     X                                                                                    X X    X                                   
     X                                                                                    X      X                                   
     X                                                                                    X      X                                   
     X                                                                                    X                                          
     X                                                                                    X                                          
                                                                                          X                                          
                                                                                          X                                          
                                                                                          X                                          
                                                                                          X                                          
                                                                                          X                                          
                                                                                          X                                          
                                                                                          X                                          
                                                                                          X                                          
                                                                                          X                                          
                                                                                          X                                          
 
 ***** Axes restored to original set *****
 -------------------------------------------------------------------
 Center     Atomic                   Forces (Hartrees/Bohr)
 Number     Number              X              Y              Z
 -------------------------------------------------------------------
      1       16           0.000055581   -0.000007462    0.000031013
      2       16          -0.000036075   -0.000093724   -0.000017579
      3        6          -0.000038370    0.000138762   -0.000136125
      4        1           0.000009263    0.000005494    0.000032649
      5        1           0.000009601   -0.000043070    0.000090042
 -------------------------------------------------------------------
 Cartesian Forces:  Max     0.000138762 RMS     0.000065826
 Z-matrix is all fixed cartesians, so copy forces.
 Force constants in Cartesian coordinates: 
                1             2             3             4             5 
      1  0.254066D+00
      2  0.119364D+00  0.746908D-01
      3 -0.520283D-01 -0.210278D-01  0.265821D-01
      4 -0.246260D-01 -0.270609D-01  0.274418D-03  0.251321D+00
      5 -0.357394D-01 -0.174224D-01 -0.466737D-02  0.750266D-01  0.200940D+00
      6 -0.784939D-02 -0.105144D-01  0.877475D-02 -0.853302D-01  0.117829D+00
      7 -0.214485D+00 -0.927167D-01  0.380264D-01 -0.875888D-01 -0.666811D-01
      8 -0.786614D-01 -0.620579D-01  0.223465D-01 -0.731418D-01 -0.151252D+00
      9  0.511736D-01  0.318152D-01 -0.340001D-01 -0.272657D-01 -0.715552D-01
     10  0.196448D-03  0.118797D-02 -0.150211D-02 -0.149011D+00  0.331320D-01
     11  0.292481D-02 -0.733783D-03  0.782884D-03  0.136700D-01 -0.255429D-01
     12  0.136808D-03  0.196278D-02 -0.193772D-02  0.106388D+00 -0.367018D-01
     13 -0.151513D-01 -0.774142D-03  0.152296D-01  0.990489D-02 -0.573809D-02
     14 -0.788780D-02  0.552329D-02  0.256589D-02  0.115062D-01 -0.672236D-02
     15  0.856729D-02 -0.223568D-02  0.580946D-03  0.593388D-02 -0.490498D-02
                6             7             8             9            10 
      6  0.188345D+00
      7 -0.211707D-01  0.408254D+00
      8 -0.671352D-01  0.907058D-01  0.306092D+00
      9 -0.751027D-01 -0.126402D+00  0.136259D+00  0.308310D+00
     10  0.124573D+00  0.127360D-01 -0.293912D-02 -0.124547D-01  0.136417D+00
     11 -0.235966D-01  0.155165D-01 -0.881482D-02 -0.171702D-01 -0.268850D-01
     12 -0.116114D+00  0.476615D-02 -0.473367D-02 -0.930150D-02 -0.111331D+00
     13 -0.102230D-01 -0.118916D+00  0.640365D-01  0.114948D+00 -0.338298D-03
     14 -0.165831D-01  0.531754D-01 -0.839675D-01 -0.793489D-01 -0.449589D-02
     15 -0.590314D-02  0.104780D+00 -0.867367D-01 -0.189906D+00  0.714122D-03
               11            12            13            14            15 
     11  0.361752D-01
     12  0.439717D-01  0.124622D+00
     13 -0.522629D-02  0.400739D-04  0.124501D+00
     14 -0.108369D-02 -0.449910D-02 -0.522980D-01  0.862502D-01
     15 -0.398785D-02  0.273194D-02 -0.119995D+00  0.978652D-01  0.192496D+00
 Leave Link  716 at Wed Aug  3 20:41:01 2016, MaxMem=    33554432 cpu:         0.1
 (Enter /home/proyectos/fulerenos/M3C-v2.0/M3C-deps_CCC/g09-AM64L-G09RevC.01/l103.exe)

 GradGradGradGradGradGradGradGradGradGradGradGradGradGradGradGradGradGrad
 Berny optimization.
 Search for a local minimum.
 Step number   1 out of a maximum of    2
 All quantities printed in internal units (Hartrees-Bohrs-Radians)
 Second derivative matrix not updated -- analytic derivatives used.
 The second derivative matrix:
                          X1        Y1        Z1        X2        Y2
           X1           0.25407
           Y1           0.11936   0.07469
           Z1          -0.05203  -0.02103   0.02658
           X2          -0.02463  -0.02706   0.00027   0.25132
           Y2          -0.03574  -0.01742  -0.00467   0.07503   0.20094
           Z2          -0.00785  -0.01051   0.00877  -0.08533   0.11783
           X3          -0.21449  -0.09272   0.03803  -0.08759  -0.06668
           Y3          -0.07866  -0.06206   0.02235  -0.07314  -0.15125
           Z3           0.05117   0.03182  -0.03400  -0.02727  -0.07156
           X4           0.00020   0.00119  -0.00150  -0.14901   0.03313
           Y4           0.00292  -0.00073   0.00078   0.01367  -0.02554
           Z4           0.00014   0.00196  -0.00194   0.10639  -0.03670
           X5          -0.01515  -0.00077   0.01523   0.00990  -0.00574
           Y5          -0.00789   0.00552   0.00257   0.01151  -0.00672
           Z5           0.00857  -0.00224   0.00058   0.00593  -0.00490
                          Z2        X3        Y3        Z3        X4
           Z2           0.18835
           X3          -0.02117   0.40825
           Y3          -0.06714   0.09071   0.30609
           Z3          -0.07510  -0.12640   0.13626   0.30831
           X4           0.12457   0.01274  -0.00294  -0.01245   0.13642
           Y4          -0.02360   0.01552  -0.00881  -0.01717  -0.02688
           Z4          -0.11611   0.00477  -0.00473  -0.00930  -0.11133
           X5          -0.01022  -0.11892   0.06404   0.11495  -0.00034
           Y5          -0.01658   0.05318  -0.08397  -0.07935  -0.00450
           Z5          -0.00590   0.10478  -0.08674  -0.18991   0.00071
                          Y4        Z4        X5        Y5        Z5
           Y4           0.03618
           Z4           0.04397   0.12462
           X5          -0.00523   0.00004   0.12450
           Y5          -0.00108  -0.00450  -0.05230   0.08625
           Z5          -0.00399   0.00273  -0.11999   0.09787   0.19250
 ITU=  0
     Eigenvalues ---    0.01957   0.02102   0.06681   0.09198   0.11222
     Eigenvalues ---    0.34213   0.41539   0.64995   0.77535
 Angle between quadratic step and forces=  40.24 degrees.
 Linear search not attempted -- first point.
 B after Tr=    -0.000039    0.000185   -0.000345
         Rot=    1.000000   -0.000025   -0.000054   -0.000039 Ang=  -0.01 deg.
 Variable       Old X    -DE/DX   Delta X   Delta X   Delta X     New X
                                 (Linear)    (Quad)   (Total)
    X1       -3.22672   0.00006   0.00000   0.00018   0.00018  -3.22654
    Y1       -1.04361  -0.00001   0.00000   0.00001  -0.00003  -1.04364
    Z1       -0.35899   0.00003   0.00000   0.00009   0.00004  -0.35895
    X2        0.96292  -0.00004   0.00000  -0.00019  -0.00040   0.96252
    Y2        2.78038  -0.00009   0.00000  -0.00014   0.00010   2.78047
    Z2        0.39257  -0.00002   0.00000  -0.00007  -0.00038   0.39219
    X3       -0.49182  -0.00004   0.00000  -0.00048  -0.00064  -0.49246
    Y3        0.29672   0.00014   0.00000   0.00079   0.00098   0.29770
    Z3       -0.94757  -0.00014   0.00000  -0.00084  -0.00112  -0.94869
    X4       -0.81195   0.00001   0.00000   0.00045   0.00038  -0.81157
    Y4        3.36480   0.00001   0.00000  -0.00032  -0.00030   3.36450
    Z4        2.13471   0.00003   0.00000   0.00074   0.00065   2.13536
    X5        0.60087   0.00001   0.00000   0.00074   0.00048   0.60135
    Y5       -0.55216  -0.00004   0.00000  -0.00110  -0.00074  -0.55290
    Z5       -2.48310   0.00009   0.00000   0.00124   0.00081  -2.48229
         Item               Value     Threshold  Converged?
 Maximum Force            0.000139     0.000450     YES
 RMS     Force            0.000066     0.000300     YES
 Maximum Displacement     0.001120     0.001800     YES
 RMS     Displacement     0.000581     0.001200     YES
 Predicted change in Energy=-2.343421D-07
 Optimization completed.
    -- Stationary point found.
 GradGradGradGradGradGradGradGradGradGradGradGradGradGradGradGradGradGrad

 Leave Link  103 at Wed Aug  3 20:41:01 2016, MaxMem=    33554432 cpu:         0.1
 (Enter /home/proyectos/fulerenos/M3C-v2.0/M3C-deps_CCC/g09-AM64L-G09RevC.01/l9999.exe)
 1\1\GINC-DEPAZ27\Freq\UB3LYP\6-311++G(3df,2p)\C1H2S2(1+,2)\NAGUIRRE\03
 -Aug-2016\0\\#p b3lyp/6-311++G(3df,2p) freq\\b3lyp opt\\1,2\S,-1.70750
 9,-0.552253,-0.189968\S,0.509553,1.471312,0.207741\C,-0.260262,0.15702
 ,-0.501433\H,-0.429665,1.780575,1.129638\H,0.317967,-0.292191,-1.31399
 9\\Version=EM64L-G09RevE.01\State=2-A\HF=-835.4239034\S2=0.757592\S2-1
 =0.\S2A=0.750037\RMSD=9.136e-09\RMSF=6.583e-05\ZeroPoint=0.0257284\The
 rmal=0.0295051\Dipole=-0.0535759,-0.0490344,-0.010669\DipoleDeriv=0.01
 73367,-0.3907201,-0.0946782,-0.1617552,0.1726009,-0.1215375,0.119073,0
 .0323383,0.3690696,0.2131759,-0.1116816,-0.0403516,-0.3037867,-0.06722
 59,-0.1463667,-0.2200534,-0.2760752,0.1985304,0.5806108,0.6164124,0.15
 90957,0.5885783,0.6215449,0.2206773,0.1331252,0.2022584,0.0605287,0.02
 329,-0.0631759,0.0154627,-0.0758355,0.1267322,0.0445368,0.0038245,0.03
 62817,0.1650219,0.1655866,-0.0508347,-0.0395286,-0.0472009,0.1463479,0
 .0026901,-0.0359694,0.0051968,0.2068494\Polar=54.2914882,18.473977,51.
 1417124,1.6116355,6.3338019,35.8906718\PG=C01 [X(C1H2S2)]\NImag=0\\0.2
 5406595,0.11936378,0.07469080,-0.05202829,-0.02102785,0.02658208,-0.02
 462603,-0.02706094,0.00027442,0.25132073,-0.03573942,-0.01742241,-0.00
 466737,0.07502656,0.20093978,-0.00784939,-0.01051443,0.00877475,-0.085
 33022,0.11782936,0.18834529,-0.21448505,-0.09271666,0.03802636,-0.0875
 8877,-0.06668107,-0.02117071,0.40825389,-0.07866138,-0.06205790,0.0223
 4645,-0.07314178,-0.15125211,-0.06713521,0.09070581,0.30609233,0.05117
 358,0.03181518,-0.03400006,-0.02726566,-0.07155525,-0.07510268,-0.1264
 0150,0.13625909,0.30830994,0.00019645,0.00118797,-0.00150211,-0.149010
 83,0.03313202,0.12457335,0.01273597,-0.00293912,-0.01245475,0.13641670
 ,0.00292481,-0.00073378,0.00078288,0.01366997,-0.02554290,-0.02359662,
 0.01551647,-0.00881482,-0.01717016,-0.02688498,0.03617519,0.00013681,0
 .00196278,-0.00193772,0.10638758,-0.03670176,-0.11611423,0.00476615,-0
 .00473367,-0.00930150,-0.11133062,0.04397175,0.12462150,-0.01515131,-0
 .00077414,0.01522962,0.00990489,-0.00573809,-0.01022303,-0.11891604,0.
 06403647,0.11494833,-0.00033830,-0.00522629,0.00004007,0.12450076,-0.0
 0788780,0.00552329,0.00256589,0.01150619,-0.00672236,-0.01658308,0.053
 17544,-0.08396749,-0.07934887,-0.00449589,-0.00108369,-0.00449910,-0.0
 5229795,0.08625025,0.00856729,-0.00223568,0.00058095,0.00593388,-0.004
 90498,-0.00590314,0.10477970,-0.08673666,-0.18990570,0.00071412,-0.003
 98785,0.00273194,-0.11999499,0.09786517,0.19249595\\-0.00005558,0.0000
 0746,-0.00003101,0.00003607,0.00009372,0.00001758,0.00003837,-0.000138
 76,0.00013613,-0.00000926,-0.00000549,-0.00003265,-0.00000960,0.000043
 07,-0.00009004\\\@


 LENDING MONEY TO FRIENDS CAUSES THEM TO LOSE THEIR MEMORIES.

    --  PETER'S THEORY OF RECIPROCAL INHIBITION OF FISCAL RECALL
 Job cpu time:       0 days  0 hours 11 minutes 59.8 seconds.
 File lengths (MBytes):  RWF=     30 Int=      0 D2E=      0 Chk=      3 Scr=      1
 Normal termination of Gaussian 09 at Wed Aug  3 20:41:01 2016.
