 Entering Gaussian System, Link 0=/home/proyectos/fulerenos/M3C-v2.0/M3C-deps_CCC/g09-AM64L-G09RevC.01/g09
 Initial command:
 /home/proyectos/fulerenos/M3C-v2.0/M3C-deps_CCC/g09-AM64L-G09RevC.01/l1.exe "/scratch/naguirre/gaussian/Gau-17514.inp" -scrdir="/scratch/naguirre/gaussian/"
 Entering Link 1 = /home/proyectos/fulerenos/M3C-v2.0/M3C-deps_CCC/g09-AM64L-G09RevC.01/l1.exe PID=     17522.
  
 Copyright (c) 1988,1990,1992,1993,1995,1998,2003,2009,2015,
            Gaussian, Inc.  All Rights Reserved.
  
 This is part of the Gaussian(R) 09 program.  It is based on
 the Gaussian(R) 03 system (copyright 2003, Gaussian, Inc.),
 the Gaussian(R) 98 system (copyright 1998, Gaussian, Inc.),
 the Gaussian(R) 94 system (copyright 1995, Gaussian, Inc.),
 the Gaussian 92(TM) system (copyright 1992, Gaussian, Inc.),
 the Gaussian 90(TM) system (copyright 1990, Gaussian, Inc.),
 the Gaussian 88(TM) system (copyright 1988, Gaussian, Inc.),
 the Gaussian 86(TM) system (copyright 1986, Carnegie Mellon
 University), and the Gaussian 82(TM) system (copyright 1983,
 Carnegie Mellon University). Gaussian is a federally registered
 trademark of Gaussian, Inc.
  
 This software contains proprietary and confidential information,
 including trade secrets, belonging to Gaussian, Inc.
  
 This software is provided under written license and may be
 used, copied, transmitted, or stored only in accord with that
 written license.
  
 The following legend is applicable only to US Government
 contracts under FAR:
  
                    RESTRICTED RIGHTS LEGEND
  
 Use, reproduction and disclosure by the US Government is
 subject to restrictions as set forth in subparagraphs (a)
 and (c) of the Commercial Computer Software - Restricted
 Rights clause in FAR 52.227-19.
  
 Gaussian, Inc.
 340 Quinnipiac St., Bldg. 40, Wallingford CT 06492
  
  
 ---------------------------------------------------------------
 Warning -- This program may not be used in any manner that
 competes with the business of Gaussian, Inc. or will provide
 assistance to any competitor of Gaussian, Inc.  The licensee
 of this program is prohibited from giving any competitor of
 Gaussian, Inc. access to this program.  By using this program,
 the user acknowledges that Gaussian, Inc. is engaged in the
 business of creating and licensing software in the field of
 computational chemistry and represents and warrants to the
 licensee that it is not a competitor of Gaussian, Inc. and that
 it will not use this program in any manner prohibited above.
 ---------------------------------------------------------------
  

 Cite this work as:
 Gaussian 09, Revision E.01,
 M. J. Frisch, G. W. Trucks, H. B. Schlegel, G. E. Scuseria, 
 M. A. Robb, J. R. Cheeseman, G. Scalmani, V. Barone, B. Mennucci, 
 G. A. Petersson, H. Nakatsuji, M. Caricato, X. Li, H. P. Hratchian, 
 A. F. Izmaylov, J. Bloino, G. Zheng, J. L. Sonnenberg, M. Hada, 
 M. Ehara, K. Toyota, R. Fukuda, J. Hasegawa, M. Ishida, T. Nakajima, 
 Y. Honda, O. Kitao, H. Nakai, T. Vreven, J. A. Montgomery, Jr., 
 J. E. Peralta, F. Ogliaro, M. Bearpark, J. J. Heyd, E. Brothers, 
 K. N. Kudin, V. N. Staroverov, T. Keith, R. Kobayashi, J. Normand, 
 K. Raghavachari, A. Rendell, J. C. Burant, S. S. Iyengar, J. Tomasi, 
 M. Cossi, N. Rega, J. M. Millam, M. Klene, J. E. Knox, J. B. Cross, 
 V. Bakken, C. Adamo, J. Jaramillo, R. Gomperts, R. E. Stratmann, 
 O. Yazyev, A. J. Austin, R. Cammi, C. Pomelli, J. W. Ochterski, 
 R. L. Martin, K. Morokuma, V. G. Zakrzewski, G. A. Voth, 
 P. Salvador, J. J. Dannenberg, S. Dapprich, A. D. Daniels, 
 O. Farkas, J. B. Foresman, J. V. Ortiz, J. Cioslowski, 
 and D. J. Fox, Gaussian, Inc., Wallingford CT, 2013.
 
 ******************************************
 Gaussian 09:  EM64L-G09RevE.01 30-Nov-2015
                 3-Aug-2016 
 ******************************************
 %NProcShared=4
 Will use up to    4 processors via shared memory.
 ------------------------------
 #p b3lyp/6-311++G(3df,2p) freq
 ------------------------------
 1/10=4,30=1,38=1/1,3;
 2/12=2,17=6,18=5,40=1/2;
 3/5=4,6=6,7=1216,11=2,16=1,25=1,30=1,71=2,74=-5,140=1/1,2,3;
 4//1;
 5/5=2,38=5,98=1/2;
 8/6=4,10=90,11=11/1;
 11/6=1,8=1,9=11,15=111,16=1/1,2,10;
 10/6=1/2;
 6/7=2,8=2,9=2,10=2,18=1,28=1/1;
 7/8=1,10=1,25=1/1,2,3,16;
 1/10=4,30=1/3;
 99//99;
 Leave Link    1 at Wed Aug  3 20:44:24 2016, MaxMem=           0 cpu:         0.3
 (Enter /home/proyectos/fulerenos/M3C-v2.0/M3C-deps_CCC/g09-AM64L-G09RevC.01/l101.exe)
 ---------
 b3lyp opt
 ---------
 Symbolic Z-matrix:
 Charge =  2 Multiplicity = 1
 S                    -1.48238  -0.0685    0.62531 
 S                     1.03387  -0.91091  -1.09537 
 C                    -0.19483  -0.56886  -0.15295 
 H                     0.8847   -2.28636  -0.99435 
 H                    -0.85976  -0.00869   1.86332 
 
 NAtoms=      5 NQM=        5 NQMF=       0 NMMI=      0 NMMIF=      0
                NMic=       0 NMicF=      0.
                    Isotopes and Nuclear Properties:
 (Nuclear quadrupole moments (NQMom) in fm**2, nuclear magnetic moments (NMagM)
  in nuclear magnetons)

  Atom         1           2           3           4           5
 IAtWgt=          32          32          12           1           1
 AtmWgt=  31.9720718  31.9720718  12.0000000   1.0078250   1.0078250
 NucSpn=           0           0           0           1           1
 AtZEff=   0.0000000   0.0000000   0.0000000   0.0000000   0.0000000
 NQMom=    0.0000000   0.0000000   0.0000000   0.0000000   0.0000000
 NMagM=    0.0000000   0.0000000   0.0000000   2.7928460   2.7928460
 AtZNuc=  16.0000000  16.0000000   6.0000000   1.0000000   1.0000000
 Leave Link  101 at Wed Aug  3 20:44:24 2016, MaxMem=    33554432 cpu:         0.2
 (Enter /home/proyectos/fulerenos/M3C-v2.0/M3C-deps_CCC/g09-AM64L-G09RevC.01/l103.exe)

 GradGradGradGradGradGradGradGradGradGradGradGradGradGradGradGradGradGrad
 Berny optimization.
 Initialization pass.
 Trust Radius=3.00D-01 FncErr=1.00D-07 GrdErr=1.00D-07
 Number of steps in this run=      2 maximum allowed number of steps=      2.
 GradGradGradGradGradGradGradGradGradGradGradGradGradGradGradGradGradGrad

 Leave Link  103 at Wed Aug  3 20:44:24 2016, MaxMem=    33554432 cpu:         0.1
 (Enter /home/proyectos/fulerenos/M3C-v2.0/M3C-deps_CCC/g09-AM64L-G09RevC.01/l202.exe)
                          Input orientation:                          
 ---------------------------------------------------------------------
 Center     Atomic      Atomic             Coordinates (Angstroms)
 Number     Number       Type             X           Y           Z
 ---------------------------------------------------------------------
      1         16           0       -1.482383   -0.068504    0.625307
      2         16           0        1.033868   -0.910913   -1.095373
      3          6           0       -0.194831   -0.568856   -0.152950
      4          1           0        0.884696   -2.286363   -0.994354
      5          1           0       -0.859761   -0.008694    1.863318
 ---------------------------------------------------------------------
                    Distance matrix (angstroms):
                    1          2          3          4          5
     1  S    0.000000
     2  S    3.162580   0.000000
     3  C    1.585505   1.585833   0.000000
     4  H    3.625640   1.387199   2.196172   0.000000
     5  H    1.387050   3.626801   2.195735   4.049345   0.000000
 Stoichiometry    CH2S2(2+)
 Framework group  C1[X(CH2S2)]
 Deg. of freedom     9
 Full point group                 C1      NOp   1
 Largest Abelian subgroup         C1      NOp   1
 Largest concise Abelian subgroup C1      NOp   1
                         Standard orientation:                         
 ---------------------------------------------------------------------
 Center     Atomic      Atomic             Coordinates (Angstroms)
 Number     Number       Type             X           Y           Z
 ---------------------------------------------------------------------
      1         16           0        1.579901   -0.065783   -0.065110
      2         16           0       -1.580036   -0.066340    0.064153
      3          6           0        0.000148    0.051687    0.001287
      4          1           0       -1.812429    0.906181   -0.897364
      5          1           0        1.813699    0.897669    0.904945
 ---------------------------------------------------------------------
 Rotational constants (GHZ):    134.7591050      3.0054590      3.0042155
 Leave Link  202 at Wed Aug  3 20:44:24 2016, MaxMem=    33554432 cpu:         0.0
 (Enter /home/proyectos/fulerenos/M3C-v2.0/M3C-deps_CCC/g09-AM64L-G09RevC.01/l301.exe)
 Standard basis: 6-311++G(3df,2p) (5D, 7F)
 Ernie: Thresh=  0.10000D-02 Tol=  0.10000D-05 Strict=F.
 There are   171 symmetry adapted cartesian basis functions of A   symmetry.
 There are   153 symmetry adapted basis functions of A   symmetry.
   153 basis functions,   226 primitive gaussians,   171 cartesian basis functions
    19 alpha electrons       19 beta electrons
       nuclear repulsion energy       126.8102284147 Hartrees.
 IExCor=  402 DFT=T Ex+Corr=B3LYP ExCW=0 ScaHFX=  0.200000
 ScaDFX=  0.800000  0.720000  1.000000  0.810000 ScalE2=  1.000000  1.000000
 IRadAn=      0 IRanWt=     -1 IRanGd=            0 ICorTp=0 IEmpDi=  4
 NAtoms=    5 NActive=    5 NUniq=    5 SFac= 1.00D+00 NAtFMM=   60 NAOKFM=F Big=F
 Integral buffers will be    131072 words long.
 Raffenetti 2 integral format.
 Two-electron integral symmetry is turned on.
 Leave Link  301 at Wed Aug  3 20:44:24 2016, MaxMem=    33554432 cpu:         0.2
 (Enter /home/proyectos/fulerenos/M3C-v2.0/M3C-deps_CCC/g09-AM64L-G09RevC.01/l302.exe)
 NPDir=0 NMtPBC=     1 NCelOv=     1 NCel=       1 NClECP=     1 NCelD=      1
         NCelK=      1 NCelE2=     1 NClLst=     1 CellRange=     0.0.
 One-electron integrals computed using PRISM.
 NBasis=   153 RedAO= T EigKep=  6.40D-05  NBF=   153
 NBsUse=   153 1.00D-06 EigRej= -1.00D+00 NBFU=   153
 Precomputing XC quadrature grid using
 IXCGrd= 4 IRadAn=           0 IRanWt=          -1 IRanGd=           0 AccXCQ= 0.00D+00.
 Generated NRdTot=       0 NPtTot=           0 NUsed=           0 NTot=          32
 NSgBfM=   171   171   171   171   171 MxSgAt=     5 MxSgA2=     5.
 Leave Link  302 at Wed Aug  3 20:44:25 2016, MaxMem=    33554432 cpu:         0.9
 (Enter /home/proyectos/fulerenos/M3C-v2.0/M3C-deps_CCC/g09-AM64L-G09RevC.01/l303.exe)
 DipDrv:  MaxL=1.
 Leave Link  303 at Wed Aug  3 20:44:25 2016, MaxMem=    33554432 cpu:         0.1
 (Enter /home/proyectos/fulerenos/M3C-v2.0/M3C-deps_CCC/g09-AM64L-G09RevC.01/l401.exe)
 ExpMin= 3.60D-02 ExpMax= 9.34D+04 ExpMxC= 3.17D+03 IAcc=3 IRadAn=         5 AccDes= 0.00D+00
 Harris functional with IExCor=  402 and IRadAn=       5 diagonalized for initial guess.
 HarFok:  IExCor=  402 AccDes= 0.00D+00 IRadAn=         5 IDoV= 1 UseB2=F ITyADJ=14
 ICtDFT=  3500011 ScaDFX=  1.000000  1.000000  1.000000  1.000000
 FoFCou: FMM=F IPFlag=           0 FMFlag=      100000 FMFlg1=           0
         NFxFlg=           0 DoJE=T BraDBF=F KetDBF=T FulRan=T
         wScrn=  0.000000 ICntrl=     500 IOpCl=  0 I1Cent=   200000004 NGrid=           0
         NMat0=    1 NMatS0=      1 NMatT0=    0 NMatD0=    1 NMtDS0=    0 NMtDT0=    0
 Petite list used in FoFCou.
 Harris En= -835.178292270736    
 JPrj=0 DoOrth=F DoCkMO=F.
 Leave Link  401 at Wed Aug  3 20:44:26 2016, MaxMem=    33554432 cpu:         3.7
 (Enter /home/proyectos/fulerenos/M3C-v2.0/M3C-deps_CCC/g09-AM64L-G09RevC.01/l502.exe)
 Closed shell SCF:
 Using DIIS extrapolation, IDIIS=  1040.
 Integral symmetry usage will be decided dynamically.
 IVT=      108541 IEndB=      108541 NGot=    33554432 MDV=    33491944
 LenX=    33491944 LenY=    33462262
 Requested convergence on RMS density matrix=1.00D-08 within 128 cycles.
 Requested convergence on MAX density matrix=1.00D-06.
 Requested convergence on             energy=1.00D-06.
 No special actions if energy rises.
 Fock matrices will be formed incrementally for  20 cycles.

 Cycle   1  Pass 1  IDiag  1:
 FoFJK:  IHMeth= 1 ICntrl=       0 DoSepK=F KAlg= 0 I1Cent=   0 FoldK=F
 IRaf= 950000000 NMat=   1 IRICut=       1 DoRegI=T DoRafI=F ISym2E= 0.
 FoFCou: FMM=F IPFlag=           0 FMFlag=      100000 FMFlg1=           0
         NFxFlg=           0 DoJE=F BraDBF=F KetDBF=F FulRan=T
         wScrn=  0.000000 ICntrl=       0 IOpCl=  0 I1Cent=           0 NGrid=           0
         NMat0=    1 NMatS0=      1 NMatT0=    0 NMatD0=    1 NMtDS0=    0 NMtDT0=    0
 Symmetry not used in FoFCou.
 E= -834.791985771783    
 DIIS: error= 2.18D-02 at cycle   1 NSaved=   1.
 NSaved= 1 IEnMin= 1 EnMin= -834.791985771783     IErMin= 1 ErrMin= 2.18D-02
 ErrMax= 2.18D-02  0.00D+00 EMaxC= 1.00D-01 BMatC= 8.64D-02 BMatP= 8.64D-02
 IDIUse=3 WtCom= 7.82D-01 WtEn= 2.18D-01
 Coeff-Com:  0.100D+01
 Coeff-En:   0.100D+01
 Coeff:      0.100D+01
 Gap=     0.230 Goal=   None    Shift=    0.000
 GapD=    0.230 DampG=1.000 DampE=0.500 DampFc=0.5000 IDamp=-1.
 Damping current iteration by 5.00D-01
 RMSDP=3.44D-03 MaxDP=1.47D-01              OVMax= 1.67D-01

 Cycle   2  Pass 1  IDiag  1:
 RMSU=  1.71D-03    CP:  1.01D+00
 E= -834.813398068652     Delta-E=       -0.021412296869 Rises=F Damp=T
 DIIS: error= 8.13D-03 at cycle   2 NSaved=   2.
 NSaved= 2 IEnMin= 2 EnMin= -834.813398068652     IErMin= 2 ErrMin= 8.13D-03
 ErrMax= 8.13D-03  0.00D+00 EMaxC= 1.00D-01 BMatC= 1.26D-02 BMatP= 8.64D-02
 IDIUse=3 WtCom= 9.19D-01 WtEn= 8.13D-02
 Coeff-Com:  0.586D-01 0.941D+00
 Coeff-En:   0.195D+00 0.805D+00
 Coeff:      0.697D-01 0.930D+00
 Gap=     0.200 Goal=   None    Shift=    0.000
 RMSDP=1.48D-03 MaxDP=4.17D-02 DE=-2.14D-02 OVMax= 1.35D-01

 Cycle   3  Pass 1  IDiag  1:
 RMSU=  1.44D-03    CP:  1.02D+00  1.09D+00
 E= -834.821020671101     Delta-E=       -0.007622602449 Rises=F Damp=F
 DIIS: error= 1.90D-02 at cycle   3 NSaved=   3.
 NSaved= 3 IEnMin= 3 EnMin= -834.821020671101     IErMin= 2 ErrMin= 8.13D-03
 ErrMax= 1.90D-02  0.00D+00 EMaxC= 1.00D-01 BMatC= 3.02D-02 BMatP= 1.26D-02
 IDIUse=2 WtCom= 0.00D+00 WtEn= 1.00D+00
 Coeff-En:   0.000D+00 0.421D+00 0.579D+00
 Coeff:      0.000D+00 0.421D+00 0.579D+00
 Gap=     0.225 Goal=   None    Shift=    0.000
 RMSDP=1.42D-03 MaxDP=5.67D-02 DE=-7.62D-03 OVMax= 1.13D-01

 Cycle   4  Pass 1  IDiag  1:
 RMSU=  9.64D-04    CP:  1.02D+00  1.43D+00  3.94D-01
 E= -834.821430395841     Delta-E=       -0.000409724740 Rises=F Damp=F
 DIIS: error= 1.88D-02 at cycle   4 NSaved=   4.
 NSaved= 4 IEnMin= 4 EnMin= -834.821430395841     IErMin= 2 ErrMin= 8.13D-03
 ErrMax= 1.88D-02  0.00D+00 EMaxC= 1.00D-01 BMatC= 2.96D-02 BMatP= 1.26D-02
 IDIUse=2 WtCom= 0.00D+00 WtEn= 1.00D+00
 Coeff-En:   0.000D+00 0.000D+00 0.498D+00 0.502D+00
 Coeff:      0.000D+00 0.000D+00 0.498D+00 0.502D+00
 Gap=     0.215 Goal=   None    Shift=    0.000
 RMSDP=7.20D-04 MaxDP=2.67D-02 DE=-4.10D-04 OVMax= 5.41D-02

 Cycle   5  Pass 1  IDiag  1:
 RMSU=  8.57D-05    CP:  1.02D+00  1.19D+00  7.38D-01  6.72D-01
 E= -834.852446813790     Delta-E=       -0.031016417950 Rises=F Damp=F
 DIIS: error= 6.08D-04 at cycle   5 NSaved=   5.
 NSaved= 5 IEnMin= 5 EnMin= -834.852446813790     IErMin= 5 ErrMin= 6.08D-04
 ErrMax= 6.08D-04  0.00D+00 EMaxC= 1.00D-01 BMatC= 9.65D-05 BMatP= 1.26D-02
 IDIUse=3 WtCom= 9.94D-01 WtEn= 6.08D-03
 Coeff-Com: -0.186D-01 0.312D-01 0.119D+00 0.100D+00 0.768D+00
 Coeff-En:   0.000D+00 0.000D+00 0.000D+00 0.000D+00 0.100D+01
 Coeff:     -0.185D-01 0.310D-01 0.119D+00 0.996D-01 0.769D+00
 Gap=     0.216 Goal=   None    Shift=    0.000
 RMSDP=6.82D-05 MaxDP=2.75D-03 DE=-3.10D-02 OVMax= 1.84D-03

 Cycle   6  Pass 1  IDiag  1:
 RMSU=  2.47D-05    CP:  1.02D+00  1.21D+00  7.30D-01  6.30D-01  7.37D-01
 E= -834.852497371089     Delta-E=       -0.000050557299 Rises=F Damp=F
 DIIS: error= 1.35D-04 at cycle   6 NSaved=   6.
 NSaved= 6 IEnMin= 6 EnMin= -834.852497371089     IErMin= 6 ErrMin= 1.35D-04
 ErrMax= 1.35D-04  0.00D+00 EMaxC= 1.00D-01 BMatC= 2.87D-06 BMatP= 9.65D-05
 IDIUse=3 WtCom= 9.99D-01 WtEn= 1.35D-03
 Coeff-Com: -0.120D-01 0.231D-01 0.106D-01-0.460D-02 0.245D+00 0.737D+00
 Coeff-En:   0.000D+00 0.000D+00 0.000D+00 0.000D+00 0.000D+00 0.100D+01
 Coeff:     -0.120D-01 0.231D-01 0.106D-01-0.460D-02 0.245D+00 0.738D+00
 Gap=     0.216 Goal=   None    Shift=    0.000
 RMSDP=1.13D-05 MaxDP=1.75D-04 DE=-5.06D-05 OVMax= 5.63D-04

 Cycle   7  Pass 1  IDiag  1:
 RMSU=  6.47D-06    CP:  1.02D+00  1.22D+00  7.29D-01  6.27D-01  7.98D-01
                    CP:  8.11D-01
 E= -834.852500036232     Delta-E=       -0.000002665143 Rises=F Damp=F
 DIIS: error= 3.32D-05 at cycle   7 NSaved=   7.
 NSaved= 7 IEnMin= 7 EnMin= -834.852500036232     IErMin= 7 ErrMin= 3.32D-05
 ErrMax= 3.32D-05  0.00D+00 EMaxC= 1.00D-01 BMatC= 1.09D-07 BMatP= 2.87D-06
 IDIUse=1 WtCom= 1.00D+00 WtEn= 0.00D+00
 Coeff-Com: -0.380D-02 0.742D-02 0.222D-03-0.531D-02 0.660D-01 0.263D+00
 Coeff-Com:  0.673D+00
 Coeff:     -0.380D-02 0.742D-02 0.222D-03-0.531D-02 0.660D-01 0.263D+00
 Coeff:      0.673D+00
 Gap=     0.216 Goal=   None    Shift=    0.000
 RMSDP=2.29D-06 MaxDP=4.95D-05 DE=-2.67D-06 OVMax= 9.28D-05

 Cycle   8  Pass 1  IDiag  1:
 RMSU=  1.12D-06    CP:  1.02D+00  1.22D+00  7.29D-01  6.27D-01  7.96D-01
                    CP:  8.40D-01  7.26D-01
 E= -834.852500122690     Delta-E=       -0.000000086458 Rises=F Damp=F
 DIIS: error= 7.28D-06 at cycle   8 NSaved=   8.
 NSaved= 8 IEnMin= 8 EnMin= -834.852500122690     IErMin= 8 ErrMin= 7.28D-06
 ErrMax= 7.28D-06  0.00D+00 EMaxC= 1.00D-01 BMatC= 7.89D-09 BMatP= 1.09D-07
 IDIUse=1 WtCom= 1.00D+00 WtEn= 0.00D+00
 Coeff-Com: -0.289D-03 0.554D-03-0.353D-03-0.122D-02 0.403D-02 0.228D-01
 Coeff-Com:  0.147D+00 0.827D+00
 Coeff:     -0.289D-03 0.554D-03-0.353D-03-0.122D-02 0.403D-02 0.228D-01
 Coeff:      0.147D+00 0.827D+00
 Gap=     0.216 Goal=   None    Shift=    0.000
 RMSDP=5.85D-07 MaxDP=1.83D-05 DE=-8.65D-08 OVMax= 4.79D-05

 Cycle   9  Pass 1  IDiag  1:
 RMSU=  4.03D-07    CP:  1.02D+00  1.22D+00  7.29D-01  6.27D-01  7.98D-01
                    CP:  8.36D-01  7.41D-01  8.15D-01
 E= -834.852500128430     Delta-E=       -0.000000005740 Rises=F Damp=F
 DIIS: error= 2.65D-06 at cycle   9 NSaved=   9.
 NSaved= 9 IEnMin= 9 EnMin= -834.852500128430     IErMin= 9 ErrMin= 2.65D-06
 ErrMax= 2.65D-06  0.00D+00 EMaxC= 1.00D-01 BMatC= 1.70D-09 BMatP= 7.89D-09
 IDIUse=1 WtCom= 1.00D+00 WtEn= 0.00D+00
 Coeff-Com: -0.182D-04 0.283D-04-0.196D-03-0.534D-03-0.247D-03 0.282D-02
 Coeff-Com:  0.615D-01 0.517D+00 0.419D+00
 Coeff:     -0.182D-04 0.283D-04-0.196D-03-0.534D-03-0.247D-03 0.282D-02
 Coeff:      0.615D-01 0.517D+00 0.419D+00
 Gap=     0.216 Goal=   None    Shift=    0.000
 RMSDP=2.93D-07 MaxDP=8.57D-06 DE=-5.74D-09 OVMax= 2.84D-05

 Cycle  10  Pass 1  IDiag  1:
 RMSU=  1.33D-07    CP:  1.02D+00  1.22D+00  7.29D-01  6.27D-01  7.98D-01
                    CP:  8.37D-01  7.40D-01  8.78D-01  3.83D-01
 E= -834.852500130514     Delta-E=       -0.000000002084 Rises=F Damp=F
 DIIS: error= 6.24D-07 at cycle  10 NSaved=  10.
 NSaved=10 IEnMin=10 EnMin= -834.852500130514     IErMin=10 ErrMin= 6.24D-07
 ErrMax= 6.24D-07  0.00D+00 EMaxC= 1.00D-01 BMatC= 1.17D-10 BMatP= 1.70D-09
 IDIUse=1 WtCom= 1.00D+00 WtEn= 0.00D+00
 Coeff-Com:  0.226D-04-0.465D-04-0.296D-04-0.108D-03-0.549D-03-0.118D-02
 Coeff-Com:  0.112D-01 0.139D+00 0.222D+00 0.630D+00
 Coeff:      0.226D-04-0.465D-04-0.296D-04-0.108D-03-0.549D-03-0.118D-02
 Coeff:      0.112D-01 0.139D+00 0.222D+00 0.630D+00
 Gap=     0.216 Goal=   None    Shift=    0.000
 RMSDP=6.74D-08 MaxDP=1.60D-06 DE=-2.08D-09 OVMax= 5.62D-06

 Cycle  11  Pass 1  IDiag  1:
 RMSU=  2.76D-08    CP:  1.02D+00  1.22D+00  7.29D-01  6.27D-01  7.98D-01
                    CP:  8.37D-01  7.40D-01  8.80D-01  5.00D-01  7.85D-01
 E= -834.852500130650     Delta-E=       -0.000000000136 Rises=F Damp=F
 DIIS: error= 2.04D-07 at cycle  11 NSaved=  11.
 NSaved=11 IEnMin=11 EnMin= -834.852500130650     IErMin=11 ErrMin= 2.04D-07
 ErrMax= 2.04D-07  0.00D+00 EMaxC= 1.00D-01 BMatC= 3.79D-12 BMatP= 1.17D-10
 IDIUse=1 WtCom= 1.00D+00 WtEn= 0.00D+00
 Coeff-Com:  0.659D-05-0.129D-04 0.204D-05 0.249D-05-0.144D-03-0.271D-03
 Coeff-Com: -0.126D-02-0.933D-02 0.145D-01 0.127D+00 0.869D+00
 Coeff:      0.659D-05-0.129D-04 0.204D-05 0.249D-05-0.144D-03-0.271D-03
 Coeff:     -0.126D-02-0.933D-02 0.145D-01 0.127D+00 0.869D+00
 Gap=     0.216 Goal=   None    Shift=    0.000
 RMSDP=8.97D-09 MaxDP=2.89D-07 DE=-1.36D-10 OVMax= 5.67D-07

 SCF Done:  E(RB3LYP) =  -834.852500131     A.U. after   11 cycles
            NFock= 11  Conv=0.90D-08     -V/T= 2.0015
 KE= 8.335626043121D+02 PE=-2.216875469291D+03 EE= 4.216501364338D+02
 Leave Link  502 at Wed Aug  3 20:44:48 2016, MaxMem=    33554432 cpu:        87.2
 (Enter /home/proyectos/fulerenos/M3C-v2.0/M3C-deps_CCC/g09-AM64L-G09RevC.01/l801.exe)
 DoSCS=F DFT=T ScalE2(SS,OS)=  1.000000  1.000000
 Range of M.O.s used for correlation:     1   153
 NBasis=   153 NAE=    19 NBE=    19 NFC=     0 NFV=     0
 NROrb=    153 NOA=    19 NOB=    19 NVA=   134 NVB=   134

 **** Warning!!: The largest alpha MO coefficient is  0.42750607D+02

 Leave Link  801 at Wed Aug  3 20:44:48 2016, MaxMem=    33554432 cpu:         0.1
 (Enter /home/proyectos/fulerenos/M3C-v2.0/M3C-deps_CCC/g09-AM64L-G09RevC.01/l1101.exe)
 Using compressed storage, NAtomX=     5.
 Will process      6 centers per pass.
 Leave Link 1101 at Wed Aug  3 20:44:48 2016, MaxMem=    33554432 cpu:         1.0
 (Enter /home/proyectos/fulerenos/M3C-v2.0/M3C-deps_CCC/g09-AM64L-G09RevC.01/l1102.exe)
 Symmetrizing basis deriv contribution to polar:
 IMax=3 JMax=2 DiffMx= 0.00D+00
 Leave Link 1102 at Wed Aug  3 20:44:48 2016, MaxMem=    33554432 cpu:         0.1
 (Enter /home/proyectos/fulerenos/M3C-v2.0/M3C-deps_CCC/g09-AM64L-G09RevC.01/l1110.exe)
 Forming Gx(P) for the SCF density, NAtomX=     5.
 Integral derivatives from FoFJK, PRISM(SPDF).
 Do as many integral derivatives as possible in FoFJK.
 G2DrvN: MDV=      33554288.
 G2DrvN: will do     6 centers at a time, making    1 passes.
 Calling FoFCou, ICntrl=  3107 FMM=F I1Cent=   0 AccDes= 0.00D+00.
 FoFJK:  IHMeth= 1 ICntrl=    3107 DoSepK=F KAlg= 0 I1Cent=   0 FoldK=F
 IRaf=         0 NMat=   1 IRICut=       1 DoRegI=T DoRafI=F ISym2E= 0.
 FoFCou: FMM=F IPFlag=           0 FMFlag=      100000 FMFlg1=           0
         NFxFlg=           0 DoJE=F BraDBF=F KetDBF=F FulRan=T
         wScrn=  0.000000 ICntrl=    3107 IOpCl=  0 I1Cent=           0 NGrid=           0
         NMat0=    1 NMatS0=      1 NMatT0=    0 NMatD0=    1 NMtDS0=    0 NMtDT0=    0
 Symmetry not used in FoFCou.
 End of G2Drv F.D. properties file   721 does not exist.
 End of G2Drv F.D. properties file   722 does not exist.
 End of G2Drv F.D. properties file   788 does not exist.
 Leave Link 1110 at Wed Aug  3 20:45:05 2016, MaxMem=    33554432 cpu:        68.3
 (Enter /home/proyectos/fulerenos/M3C-v2.0/M3C-deps_CCC/g09-AM64L-G09RevC.01/l1002.exe)
 Minotr:  Closed shell wavefunction.
          IDoAtm=11111
          Direct CPHF calculation.
          Differentiating once with respect to electric field.
                with respect to dipole field.
          Differentiating once with respect to nuclear coordinates.
          Requested convergence is 1.0D-08 RMS, and 1.0D-07 maximum.
          Secondary convergence is 1.0D-12 RMS, and 1.0D-12 maximum.
          NewPWx=T KeepS1=F KeepF1=F KeepIn=T MapXYZ=F SortEE=F KeepMc=T.
          MDV=      33554225 using IRadAn=       2.
 Generate precomputed XC quadrature information.
          Solving linear equations simultaneously, MaxMat=       0.
 FoFJK:  IHMeth= 1 ICntrl=       0 DoSepK=F KAlg= 0 I1Cent=   0 FoldK=F
 IRaf= 950000000 NMat=  18 IRICut=      45 DoRegI=T DoRafI=T ISym2E= 2.
 FoFCou: FMM=F IPFlag=           0 FMFlag=      100000 FMFlg1=           0
         NFxFlg=           0 DoJE=F BraDBF=F KetDBF=F FulRan=T
         wScrn=  0.000000 ICntrl=       0 IOpCl=  0 I1Cent=           0 NGrid=           0
         NMat0=   18 NMatS0=     18 NMatT0=    0 NMatD0=   18 NMtDS0=    0 NMtDT0=    0
 Integrals replicated using symmetry in FoFCou.
          There are    18 degrees of freedom in the 1st order CPHF.  IDoFFX=6 NUNeed=     3.
     17 vectors produced by pass  0 Test12= 1.41D-14 5.56D-09 XBig12= 1.70D+02 8.83D+00.
 AX will form    17 AO Fock derivatives at one time.
     15 vectors produced by pass  1 Test12= 1.41D-14 5.56D-09 XBig12= 2.63D+01 1.13D+00.
     15 vectors produced by pass  2 Test12= 1.41D-14 5.56D-09 XBig12= 5.42D-01 2.84D-01.
     15 vectors produced by pass  3 Test12= 1.41D-14 5.56D-09 XBig12= 4.72D-03 2.61D-02.
     15 vectors produced by pass  4 Test12= 1.41D-14 5.56D-09 XBig12= 5.43D-05 2.40D-03.
     15 vectors produced by pass  5 Test12= 1.41D-14 5.56D-09 XBig12= 1.16D-07 7.23D-05.
      5 vectors produced by pass  6 Test12= 1.41D-14 5.56D-09 XBig12= 1.40D-10 2.71D-06.
      4 vectors produced by pass  7 Test12= 1.41D-14 5.56D-09 XBig12= 1.31D-13 8.72D-08.
      1 vectors produced by pass  8 Test12= 1.41D-14 5.56D-09 XBig12= 2.30D-15 1.48D-08.
 InvSVY:  IOpt=1 It=  1 EMax= 3.55D-15
 Solved reduced A of dimension   102 with    18 vectors.
 FullF1:  Do perturbations    1 to     3.
 Isotropic polarizability for W=    0.000000       43.12 Bohr**3.
 End of Minotr F.D. properties file   721 does not exist.
 End of Minotr F.D. properties file   722 does not exist.
 End of Minotr F.D. properties file   788 does not exist.
 Leave Link 1002 at Wed Aug  3 20:45:49 2016, MaxMem=    33554432 cpu:       173.0
 (Enter /home/proyectos/fulerenos/M3C-v2.0/M3C-deps_CCC/g09-AM64L-G09RevC.01/l601.exe)
 Copying SCF densities to generalized density rwf, IOpCl= 0 IROHF=0.

 **********************************************************************

            Population analysis using the SCF density.

 **********************************************************************

 Orbital symmetries:
       Occupied  (A) (A) (A) (A) (A) (A) (A) (A) (A) (A) (A) (A)
                 (A) (A) (A) (A) (A) (A) (A)
       Virtual   (A) (A) (A) (A) (A) (A) (A) (A) (A) (A) (A) (A)
                 (A) (A) (A) (A) (A) (A) (A) (A) (A) (A) (A) (A)
                 (A) (A) (A) (A) (A) (A) (A) (A) (A) (A) (A) (A)
                 (A) (A) (A) (A) (A) (A) (A) (A) (A) (A) (A) (A)
                 (A) (A) (A) (A) (A) (A) (A) (A) (A) (A) (A) (A)
                 (A) (A) (A) (A) (A) (A) (A) (A) (A) (A) (A) (A)
                 (A) (A) (A) (A) (A) (A) (A) (A) (A) (A) (A) (A)
                 (A) (A) (A) (A) (A) (A) (A) (A) (A) (A) (A) (A)
                 (A) (A) (A) (A) (A) (A) (A) (A) (A) (A) (A) (A)
                 (A) (A) (A) (A) (A) (A) (A) (A) (A) (A) (A) (A)
                 (A) (A) (A) (A) (A) (A) (A) (A) (A) (A) (A) (A)
                 (A) (A)
 The electronic state is 1-A.
 Alpha  occ. eigenvalues --  -89.42957 -89.42956 -10.80740  -8.51016  -8.51011
 Alpha  occ. eigenvalues --   -6.47201  -6.47199  -6.46943  -6.46940  -6.46793
 Alpha  occ. eigenvalues --   -6.46790  -1.37410  -1.30220  -1.05948  -0.98211
 Alpha  occ. eigenvalues --   -0.91832  -0.90304  -0.81984  -0.81942
 Alpha virt. eigenvalues --   -0.60318  -0.60198  -0.45268  -0.43677  -0.42468
 Alpha virt. eigenvalues --   -0.33598  -0.31908  -0.28461  -0.28417  -0.26410
 Alpha virt. eigenvalues --   -0.26233  -0.24662  -0.24510  -0.23188  -0.22197
 Alpha virt. eigenvalues --   -0.17982  -0.17864  -0.17274  -0.17196  -0.15678
 Alpha virt. eigenvalues --   -0.15677  -0.13128  -0.11456  -0.08684  -0.05844
 Alpha virt. eigenvalues --   -0.05159  -0.04280  -0.03541  -0.03185  -0.01999
 Alpha virt. eigenvalues --   -0.01730  -0.00355   0.01159   0.01287   0.03079
 Alpha virt. eigenvalues --    0.03984   0.06268   0.12751   0.14420   0.20687
 Alpha virt. eigenvalues --    0.22650   0.24935   0.25125   0.27514   0.32142
 Alpha virt. eigenvalues --    0.37771   0.38058   0.39489   0.39647   0.44835
 Alpha virt. eigenvalues --    0.44902   0.48069   0.48654   0.49716   0.53040
 Alpha virt. eigenvalues --    0.55933   0.56850   0.57893   0.58484   0.61445
 Alpha virt. eigenvalues --    0.66721   0.71113   0.79719   0.94156   0.94323
 Alpha virt. eigenvalues --    1.02070   1.03061   1.03340   1.05039   1.06386
 Alpha virt. eigenvalues --    1.14170   1.14436   1.22049   1.31796   1.32157
 Alpha virt. eigenvalues --    1.34575   1.39528   1.41157   1.44163   1.45251
 Alpha virt. eigenvalues --    1.46646   1.54606   1.58817   1.69766   1.72815
 Alpha virt. eigenvalues --    1.82319   1.85077   1.98535   1.99725   2.13019
 Alpha virt. eigenvalues --    2.15454   2.17514   2.28835   2.28936   2.36492
 Alpha virt. eigenvalues --    2.36523   2.58645   2.60788   2.63320   3.08821
 Alpha virt. eigenvalues --    3.09873   3.32596   3.32736   3.40646   3.46696
 Alpha virt. eigenvalues --    3.52847   3.56546   3.75318   4.08201   4.10441
 Alpha virt. eigenvalues --    4.26515   4.29009   4.39005   4.48102   4.54644
 Alpha virt. eigenvalues --    4.58745   5.01539   5.32294   6.40348   6.42812
 Alpha virt. eigenvalues --    6.75548   6.76012   6.89433   7.97889   8.21145
 Alpha virt. eigenvalues --   16.80915  16.81391  17.05054  17.05784  17.25484
 Alpha virt. eigenvalues --   17.62771  23.47007 188.95553 189.13797
          Condensed to atoms (all electrons):
               1          2          3          4          5
     1  S   15.661922  -0.607373   0.261509  -0.000810   0.302611
     2  S   -0.607373  15.662469   0.261636   0.302262  -0.000917
     3  C    0.261509   0.261636   4.827292   0.013472   0.013258
     4  H   -0.000810   0.302262   0.013472   0.378477   0.000040
     5  H    0.302611  -0.000917   0.013258   0.000040   0.378463
 Mulliken charges:
               1
     1  S    0.382142
     2  S    0.381923
     3  C    0.622833
     4  H    0.306559
     5  H    0.306544
 Sum of Mulliken charges =   2.00000
 Mulliken charges with hydrogens summed into heavy atoms:
               1
     1  S    0.688685
     2  S    0.688482
     3  C    0.622833
 APT charges:
               1
     1  S    0.470650
     2  S    0.470761
     3  C    0.500285
     4  H    0.279094
     5  H    0.279210
 Sum of APT charges =   2.00000
 APT charges with hydrogens summed into heavy atoms:
               1
     1  S    0.749860
     2  S    0.749855
     3  C    0.500285
 Electronic spatial extent (au):  <R**2>=            353.2900
 Charge=              2.0000 electrons
 Dipole moment (field-independent basis, Debye):
    X=              0.0023    Y=              1.7041    Z=              0.0065  Tot=              1.7042
 Quadrupole moment (field-independent basis, Debye-Ang):
   XX=              3.7324   YY=            -23.3188   ZZ=            -23.3290
   XY=             -0.0162   XZ=              3.8259   YZ=             -0.0014
 Traceless Quadrupole moment (field-independent basis, Debye-Ang):
   XX=             18.0375   YY=             -9.0137   ZZ=             -9.0239
   XY=             -0.0162   XZ=              3.8259   YZ=             -0.0014
 Octapole moment (field-independent basis, Debye-Ang**2):
  XXX=              0.0203  YYY=              2.4806  ZZZ=              0.0287  XYY=             -0.0448
  XXY=              7.3324  XXZ=              0.0244  XZZ=              0.0457  YZZ=              2.6117
  YYZ=             -0.0157  XYZ=              5.0659
 Hexadecapole moment (field-independent basis, Debye-Ang**3):
 XXXX=           -230.8438 YYYY=            -29.0037 ZZZZ=            -28.8979 XXXY=             -0.0563
 XXXZ=             16.0758 YYYX=             -0.0730 YYYZ=             -0.0327 ZZZX=              5.7687
 ZZZY=              0.0255 XXYY=            -51.7676 XXZZ=            -51.7659 YYZZ=             -7.4821
 XXYZ=              0.0019 YYXZ=              5.3989 ZZXY=              0.0221
 N-N= 1.268102284147D+02 E-N=-2.216875473718D+03  KE= 8.335626043121D+02
  Exact polarizability:  72.984  -0.012  28.136   3.055  -0.001  28.243
 Approx polarizability: 165.688  -0.008  46.899   4.339   0.001  46.742
 No NMR shielding tensors so no spin-rotation constants.
 Leave Link  601 at Wed Aug  3 20:45:49 2016, MaxMem=    33554432 cpu:         0.8
 (Enter /home/proyectos/fulerenos/M3C-v2.0/M3C-deps_CCC/g09-AM64L-G09RevC.01/l701.exe)
 Compute integral second derivatives.
 ... and contract with generalized density number  0.
 Leave Link  701 at Wed Aug  3 20:45:49 2016, MaxMem=    33554432 cpu:         1.4
 (Enter /home/proyectos/fulerenos/M3C-v2.0/M3C-deps_CCC/g09-AM64L-G09RevC.01/l702.exe)
 L702 exits ... SP integral derivatives will be done elsewhere.
 Leave Link  702 at Wed Aug  3 20:45:49 2016, MaxMem=    33554432 cpu:         0.1
 (Enter /home/proyectos/fulerenos/M3C-v2.0/M3C-deps_CCC/g09-AM64L-G09RevC.01/l703.exe)
 Compute integral second derivatives, UseDBF=F ICtDFT=           0.
 Integral derivatives from FoFJK, PRISM(SPDF).
 Calling FoFJK, ICntrl=    100127 FMM=F ISym2X=0 I1Cent= 0 IOpClX= 0 NMat=1 NMatS=1 NMatT=0.
 FoFJK:  IHMeth= 1 ICntrl=  100127 DoSepK=F KAlg= 0 I1Cent=   0 FoldK=F
 IRaf=         0 NMat=   1 IRICut=       1 DoRegI=T DoRafI=F ISym2E= 0.
 FoFCou: FMM=F IPFlag=           0 FMFlag=      100000 FMFlg1=         800
         NFxFlg=           0 DoJE=F BraDBF=F KetDBF=F FulRan=T
         wScrn=  0.000000 ICntrl=  100127 IOpCl=  0 I1Cent=           0 NGrid=           0
         NMat0=    1 NMatS0=      1 NMatT0=    0 NMatD0=    1 NMtDS0=    0 NMtDT0=    0
 Symmetry not used in FoFCou.
 Leave Link  703 at Wed Aug  3 20:46:30 2016, MaxMem=    33554432 cpu:       162.8
 (Enter /home/proyectos/fulerenos/M3C-v2.0/M3C-deps_CCC/g09-AM64L-G09RevC.01/l716.exe)
 Dipole        = 8.90492151D-04 6.70460283D-01 2.56496989D-03
 Polarizability= 7.29839757D+01-1.15321549D-02 2.81362828D+01
                 3.05523779D+00-1.44251109D-03 2.82425862D+01
 Full mass-weighted force constant matrix:
 Low frequencies ---   -0.0039   -0.0037   -0.0023    6.7446    7.5688   21.0988
 Low frequencies ---  321.0050  326.0746  607.7844
 Diagonal vibrational polarizability:
        6.4857812       3.8880770       2.7822046
 Harmonic frequencies (cm**-1), IR intensities (KM/Mole), Raman scattering
 activities (A**4/AMU), depolarization ratios for plane and unpolarized
 incident light, reduced masses (AMU), force constants (mDyne/A),
 and normal coordinates:
                      1                      2                      3
                      A                      A                      A
 Frequencies --    321.0034               326.0745               607.7844
 Red. masses --      5.5025                 4.3170                10.9038
 Frc consts  --      0.3341                 0.2704                 2.3732
 IR Inten    --      1.7152                17.3098                 0.0475
  Atom  AN      X      Y      Z        X      Y      Z        X      Y      Z
     1  16    -0.06  -0.10   0.01    -0.02   0.01  -0.09    -0.40   0.02   0.00
     2  16     0.06  -0.10  -0.02    -0.02  -0.00  -0.09     0.40   0.02  -0.00
     3   6     0.00   0.57   0.02     0.01  -0.01   0.51    -0.00  -0.12  -0.00
     4   1    -0.53  -0.15   0.08     0.53  -0.09  -0.30     0.57   0.01  -0.07
     5   1     0.55  -0.15  -0.09     0.51   0.09  -0.30    -0.58   0.01   0.07
                      4                      5                      6
                      A                      A                      A
 Frequencies --    623.0629               893.2284               896.7901
 Red. masses --      1.0416                 1.2271                 1.2049
 Frc consts  --      0.2382                 0.5768                 0.5709
 IR Inten    --     31.4825                14.3007                34.7442
  Atom  AN      X      Y      Z        X      Y      Z        X      Y      Z
     1  16    -0.00  -0.02   0.02    -0.03   0.02   0.02    -0.02   0.02   0.02
     2  16     0.00  -0.01  -0.02     0.02   0.02  -0.02    -0.02  -0.02   0.02
     3   6     0.00  -0.00   0.00    -0.00  -0.11  -0.00    -0.00   0.00  -0.11
     4   1     0.02   0.50   0.50    -0.67  -0.05   0.07     0.72   0.09  -0.04
     5   1    -0.02   0.50  -0.49     0.72  -0.06  -0.08     0.67  -0.09  -0.04
                      7                      8                      9
                      A                      A                      A
 Frequencies --   1455.2308              2368.0853              2380.4903
 Red. masses --     12.3288                 1.0407                 1.0387
 Frc consts  --     15.3827                 3.4386                 3.4679
 IR Inten    --    142.1825               398.8159               163.2786
  Atom  AN      X      Y      Z        X      Y      Z        X      Y      Z
     1  16    -0.17   0.01   0.00     0.00   0.02   0.02    -0.00  -0.02  -0.02
     2  16    -0.17  -0.01   0.00     0.00  -0.02   0.02     0.00  -0.02   0.01
     3   6     0.93   0.00  -0.03     0.01   0.00  -0.00    -0.00   0.00   0.00
     4   1    -0.14  -0.10   0.10    -0.12   0.51  -0.51    -0.11   0.48  -0.47
     5   1    -0.14   0.10   0.10    -0.12  -0.47  -0.48     0.12   0.51   0.51

 -------------------
 - Thermochemistry -
 -------------------
 Temperature   298.150 Kelvin.  Pressure   1.00000 Atm.
 Atom     1 has atomic number 16 and mass  31.97207
 Atom     2 has atomic number 16 and mass  31.97207
 Atom     3 has atomic number  6 and mass  12.00000
 Atom     4 has atomic number  1 and mass   1.00783
 Atom     5 has atomic number  1 and mass   1.00783
 Molecular mass:    77.95979 amu.
 Principal axes and moments of inertia in atomic units:
                           1         2         3
     Eigenvalues --    13.39235 600.48771 600.73626
           X            0.99981   0.00018   0.01968
           Y            0.00009   0.99991  -0.01339
           Z           -0.01968   0.01339   0.99972
 This molecule is an asymmetric top.
 Rotational symmetry number  1.
 Rotational temperatures (Kelvin)      6.46741     0.14424     0.14418
 Rotational constants (GHZ):         134.75910     3.00546     3.00422
 Zero-point vibrational energy      59046.2 (Joules/Mol)
                                   14.11238 (Kcal/Mol)
 Warning -- explicit consideration of   3 degrees of freedom as
           vibrations may cause significant error
 Vibrational temperatures:    461.85   469.15   874.47   896.45  1285.15
          (Kelvin)           1290.28  2093.75  3407.14  3424.99
 
 Zero-point correction=                           0.022490 (Hartree/Particle)
 Thermal correction to Energy=                    0.026525
 Thermal correction to Enthalpy=                  0.027469
 Thermal correction to Gibbs Free Energy=        -0.003796
 Sum of electronic and zero-point Energies=           -834.830011
 Sum of electronic and thermal Energies=              -834.825975
 Sum of electronic and thermal Enthalpies=            -834.825031
 Sum of electronic and thermal Free Energies=         -834.856296
 
                     E (Thermal)             CV                S
                      KCal/Mol        Cal/Mol-Kelvin    Cal/Mol-Kelvin
 Total                   16.645             12.324             65.803
 Electronic               0.000              0.000              0.000
 Translational            0.889              2.981             38.976
 Rotational               0.889              2.981             23.095
 Vibrational             14.867              6.362              3.732
 Vibration     1          0.706              1.633              1.305
 Vibration     2          0.710              1.623              1.279
 Vibration     3          0.967              1.015              0.436
                       Q            Log10(Q)             Ln(Q)
 Total Bot       0.557369D+02          1.746143          4.020643
 Total V=0       0.123189D+13         12.090573         27.839574
 Vib (Bot)       0.827967D-10        -10.081987        -23.214633
 Vib (Bot)    1  0.585258D+00         -0.232653         -0.535703
 Vib (Bot)    2  0.574394D+00         -0.240790         -0.554439
 Vib (Bot)    3  0.243710D+00         -0.613127         -1.411777
 Vib (V=0)       0.182997D+01          0.262443          0.604298
 Vib (V=0)    1  0.126976D+01          0.103721          0.238826
 Vib (V=0)    2  0.126153D+01          0.100898          0.232326
 Vib (V=0)    3  0.105623D+01          0.023759          0.054708
 Electronic      0.100000D+01          0.000000          0.000000
 Translational   0.270559D+08          7.432261         17.113414
 Rotational      0.248811D+05          4.395869         10.121862
 
                                                              b3lyp opt
                                                             IR Spectrum
 
     22                                                1                                                                             
     33                                                4                            88             66             33                 
     86                                                5                            99             20             22                 
     08                                                5                            73             38             61                 
 
     XX                                                X                            XX             X              XX                 
     XX                                                X                            X              X                                 
     XX                                                X                                                                             
     XX                                                X                                                                             
     XX                                                X                                                                             
     XX                                                X                                                                             
     XX                                                X                                                                             
     XX                                                                                                                              
      X                                                                                                                              
      X                                                                                                                              
      X                                                                                                                              
      X                                                                                                                              
      X                                                                                                                              
      X                                                                                                                              
      X                                                                                                                              
      X                                                                                                                              
      X                                                                                                                              
      X                                                                                                                              
      X                                                                                                                              
      X                                                                                                                              
 
 ***** Axes restored to original set *****
 -------------------------------------------------------------------
 Center     Atomic                   Forces (Hartrees/Bohr)
 Number     Number              X              Y              Z
 -------------------------------------------------------------------
      1       16           0.000016961    0.000030471   -0.000082906
      2       16          -0.000169851    0.000149464    0.000156541
      3        6           0.000123134   -0.000140238   -0.000208617
      4        1          -0.000022159   -0.000028154    0.000043977
      5        1           0.000051915   -0.000011543    0.000091005
 -------------------------------------------------------------------
 Cartesian Forces:  Max     0.000208617 RMS     0.000108462
 Z-matrix is all fixed cartesians, so copy forces.
 Force constants in Cartesian coordinates: 
                1             2             3             4             5 
      1  0.363337D+00
      2 -0.105026D+00  0.582056D-01
      3 -0.602931D-01  0.645137D-01  0.277163D+00
      4 -0.379852D-02  0.304113D-02  0.180784D-01  0.278478D+00
      5  0.111625D-01  0.663633D-02 -0.114243D-01 -0.234584D-01  0.251529D+00
      6  0.104739D-01 -0.134271D-01 -0.574108D-03 -0.197838D+00  0.199157D-01
      7 -0.291743D+00  0.994077D-01  0.135294D+00 -0.254123D+00  0.508683D-01
      8  0.954558D-01 -0.593817D-01 -0.548719D-01  0.429581D-01 -0.612252D-01
      9  0.125923D+00 -0.525294D-01 -0.121594D+00  0.174666D+00 -0.390477D-01
     10  0.438612D-03  0.324044D-02  0.150984D-02 -0.181025D-01 -0.406482D-01
     11 -0.339813D-02  0.205037D-02  0.363304D-02 -0.284286D-01 -0.198654D+00
     12  0.409598D-02  0.681078D-02 -0.966773D-03  0.846153D-02  0.288304D-01
     13 -0.682338D-01 -0.662999D-03 -0.945893D-01 -0.245409D-02  0.207575D-02
     14  0.180610D-02 -0.751067D-02 -0.185051D-02  0.588778D-02  0.171324D-02
     15 -0.801993D-01 -0.536795D-02 -0.154028D+00 -0.336812D-02  0.172588D-02
                6             7             8             9            10 
      6  0.167937D+00
      7  0.176966D+00  0.536805D+00
      8 -0.324690D-01 -0.161397D+00  0.133356D+00
      9 -0.156718D+00 -0.320985D+00  0.110783D+00  0.301635D+00
     10  0.840795D-02 -0.204336D-02  0.227135D-01 -0.220314D-03  0.211516D-01
     11  0.200894D-01  0.134658D-01 -0.890645D-02 -0.987919D-02  0.190104D-01
     12 -0.129092D-01 -0.571155D-03 -0.178350D-01 -0.255401D-02 -0.103926D-01
     13  0.199071D-02  0.111049D-01  0.269992D-03  0.206163D-01 -0.144437D-02
     14  0.589096D-02 -0.234448D-02 -0.384295D-02 -0.932698D-02 -0.431617D-02
     15  0.226408D-02  0.929623D-02 -0.560736D-02 -0.207694D-01  0.695136D-03
               11            12            13            14            15 
     11  0.205298D+00
     12 -0.128207D-01  0.150645D-01
     13 -0.649512D-03 -0.159373D-02  0.610273D-01
     14  0.211452D-03 -0.498544D-02 -0.103323D-02  0.942893D-02
     15 -0.102253D-02  0.136542D-02  0.735761D-01  0.102720D-01  0.171167D+00
 Leave Link  716 at Wed Aug  3 20:46:31 2016, MaxMem=    33554432 cpu:         0.1
 (Enter /home/proyectos/fulerenos/M3C-v2.0/M3C-deps_CCC/g09-AM64L-G09RevC.01/l103.exe)

 GradGradGradGradGradGradGradGradGradGradGradGradGradGradGradGradGradGrad
 Berny optimization.
 Search for a local minimum.
 Step number   1 out of a maximum of    2
 All quantities printed in internal units (Hartrees-Bohrs-Radians)
 Second derivative matrix not updated -- analytic derivatives used.
 The second derivative matrix:
                          X1        Y1        Z1        X2        Y2
           X1           0.36334
           Y1          -0.10503   0.05821
           Z1          -0.06029   0.06451   0.27716
           X2          -0.00380   0.00304   0.01808   0.27848
           Y2           0.01116   0.00664  -0.01142  -0.02346   0.25153
           Z2           0.01047  -0.01343  -0.00057  -0.19784   0.01992
           X3          -0.29174   0.09941   0.13529  -0.25412   0.05087
           Y3           0.09546  -0.05938  -0.05487   0.04296  -0.06123
           Z3           0.12592  -0.05253  -0.12159   0.17467  -0.03905
           X4           0.00044   0.00324   0.00151  -0.01810  -0.04065
           Y4          -0.00340   0.00205   0.00363  -0.02843  -0.19865
           Z4           0.00410   0.00681  -0.00097   0.00846   0.02883
           X5          -0.06823  -0.00066  -0.09459  -0.00245   0.00208
           Y5           0.00181  -0.00751  -0.00185   0.00589   0.00171
           Z5          -0.08020  -0.00537  -0.15403  -0.00337   0.00173
                          Z2        X3        Y3        Z3        X4
           Z2           0.16794
           X3           0.17697   0.53681
           Y3          -0.03247  -0.16140   0.13336
           Z3          -0.15672  -0.32098   0.11078   0.30164
           X4           0.00841  -0.00204   0.02271  -0.00022   0.02115
           Y4           0.02009   0.01347  -0.00891  -0.00988   0.01901
           Z4          -0.01291  -0.00057  -0.01784  -0.00255  -0.01039
           X5           0.00199   0.01110   0.00027   0.02062  -0.00144
           Y5           0.00589  -0.00234  -0.00384  -0.00933  -0.00432
           Z5           0.00226   0.00930  -0.00561  -0.02077   0.00070
                          Y4        Z4        X5        Y5        Z5
           Y4           0.20530
           Z4          -0.01282   0.01506
           X5          -0.00065  -0.00159   0.06103
           Y5           0.00021  -0.00499  -0.00103   0.00943
           Z5          -0.00102   0.00137   0.07358   0.01027   0.17117
 ITU=  0
     Eigenvalues ---    0.01454   0.01989   0.02444   0.10017   0.11330
     Eigenvalues ---    0.32928   0.33567   0.46463   1.16449
 Angle between quadratic step and forces=  67.94 degrees.
 Linear search not attempted -- first point.
 B after Tr=    -0.000085    0.000260    0.000112
         Rot=    1.000000   -0.000046    0.000069    0.000071 Ang=  -0.01 deg.
 Variable       Old X    -DE/DX   Delta X   Delta X   Delta X     New X
                                 (Linear)    (Quad)   (Total)
    X1       -2.80130   0.00002   0.00000   0.00020  -0.00006  -2.80136
    Y1       -0.12945   0.00003   0.00000   0.00046   0.00101  -0.12845
    Z1        1.18166  -0.00008   0.00000  -0.00003  -0.00031   1.18135
    X2        1.95373  -0.00017   0.00000  -0.00013  -0.00018   1.95355
    Y2       -1.72138   0.00015   0.00000   0.00041   0.00058  -1.72079
    Z2       -2.06995   0.00016   0.00000   0.00063   0.00085  -2.06910
    X3       -0.36818   0.00012   0.00000  -0.00120  -0.00139  -0.36957
    Y3       -1.07498  -0.00014   0.00000  -0.00082  -0.00048  -1.07546
    Z3       -0.28903  -0.00021   0.00000  -0.00143  -0.00147  -0.29050
    X4        1.67183  -0.00002   0.00000   0.00047   0.00003   1.67186
    Y4       -4.32060  -0.00003   0.00000   0.00021   0.00041  -4.32019
    Z4       -1.87906   0.00004   0.00000   0.00149   0.00143  -1.87763
    X5       -1.62471   0.00005   0.00000   0.00217   0.00160  -1.62311
    Y5       -0.01643  -0.00001   0.00000  -0.00169  -0.00152  -0.01795
    Z5        3.52116   0.00009   0.00000  -0.00038  -0.00050   3.52067
         Item               Value     Threshold  Converged?
 Maximum Force            0.000209     0.000450     YES
 RMS     Force            0.000108     0.000300     YES
 Maximum Displacement     0.001602     0.001800     YES
 RMS     Displacement     0.000962     0.001200     YES
 Predicted change in Energy=-3.071356D-07
 Optimization completed.
    -- Stationary point found.
 GradGradGradGradGradGradGradGradGradGradGradGradGradGradGradGradGradGrad

 Leave Link  103 at Wed Aug  3 20:46:31 2016, MaxMem=    33554432 cpu:         0.1
 (Enter /home/proyectos/fulerenos/M3C-v2.0/M3C-deps_CCC/g09-AM64L-G09RevC.01/l9999.exe)
 1\1\GINC-DEPAZ27\Freq\RB3LYP\6-311++G(3df,2p)\C1H2S2(2+)\NAGUIRRE\03-A
 ug-2016\0\\#p b3lyp/6-311++G(3df,2p) freq\\b3lyp opt\\2,1\S,-1.482383,
 -0.068504,0.625307\S,1.033868,-0.910913,-1.095373\C,-0.194831,-0.56885
 6,-0.15295\H,0.884696,-2.286363,-0.994354\H,-0.859761,-0.008694,1.8633
 18\\Version=EM64L-G09RevE.01\State=1-A\HF=-834.8525001\RMSD=8.973e-09\
 RMSF=1.085e-04\ZeroPoint=0.0224895\Thermal=0.0265248\Dipole=0.1634219,
 -0.4557718,0.4637777\DipoleDeriv=0.5768476,0.0775334,0.2094965,0.10797
 33,0.6383807,-0.1762845,0.3901473,-0.2030106,0.1967202,0.4592955,0.218
 6854,0.191339,0.3786437,0.4062367,-0.2913837,0.1974996,-0.1970444,0.54
 675,0.7736153,-0.3363145,-0.5934709,-0.3698174,0.1969393,0.2930278,-0.
 6260816,0.2810697,0.5303004,0.1312754,-0.0279771,0.0705215,-0.1675563,
 0.5373778,0.1339903,0.0784219,0.0429274,0.16863,0.0589662,0.0680727,0.
 1221139,0.0507566,0.2210655,0.0406501,-0.0399872,0.0760579,0.5575993\P
 olar=52.1570438,-11.2013781,33.2700646,-19.5363613,9.0205351,43.935736
 5\PG=C01 [X(C1H2S2)]\NImag=0\\0.36333707,-0.10502624,0.05820563,-0.060
 29313,0.06451368,0.27716262,-0.00379852,0.00304113,0.01807837,0.278478
 30,0.01116248,0.00663633,-0.01142428,-0.02345839,0.25152929,0.01047392
 ,-0.01342707,-0.00057411,-0.19783822,0.01991566,0.16793701,-0.29174338
 ,0.09940768,0.13529422,-0.25412320,0.05086832,0.17696562,0.53680500,0.
 09545579,-0.05938165,-0.05487193,0.04295805,-0.06122520,-0.03246898,-0
 .16139733,0.13335626,0.12592253,-0.05252945,-0.12159419,0.17466643,-0.
 03904766,-0.15671782,-0.32098492,0.11078328,0.30163546,0.00043861,0.00
 324044,0.00150984,-0.01810250,-0.04064816,0.00840795,-0.00204336,0.022
 71349,-0.00022031,0.02115162,-0.00339813,0.00205037,0.00363304,-0.0284
 2856,-0.19865365,0.02008942,0.01346581,-0.00890645,-0.00987919,0.01901
 040,0.20529828,0.00409598,0.00681078,-0.00096677,0.00846153,0.02883041
 ,-0.01290917,-0.00057116,-0.01783501,-0.00255401,-0.01039262,-0.012820
 74,0.01506453,-0.06823378,-0.00066300,-0.09458931,-0.00245409,0.002075
 75,0.00199071,0.01110495,0.00026999,0.02061626,-0.00144437,-0.00064951
 ,-0.00159373,0.06102730,0.00180610,-0.00751067,-0.00185051,0.00588778,
 0.00171324,0.00589096,-0.00234448,-0.00384295,-0.00932698,-0.00431617,
 0.00021145,-0.00498544,-0.00103323,0.00942893,-0.08019931,-0.00536795,
 -0.15402755,-0.00336812,0.00172588,0.00226408,0.00929623,-0.00560736,-
 0.02076944,0.00069514,-0.00102253,0.00136542,0.07357607,0.01027197,0.1
 7116749\\-0.00001696,-0.00003047,0.00008291,0.00016985,-0.00014946,-0.
 00015654,-0.00012313,0.00014024,0.00020862,0.00002216,0.00002815,-0.00
 004398,-0.00005191,0.00001154,-0.00009101\\\@


 KINETICS       FACT
 ---------  =  -------
 MECHANISM     FICTION
 Job cpu time:       0 days  0 hours  8 minutes 20.9 seconds.
 File lengths (MBytes):  RWF=     18 Int=      0 D2E=      0 Chk=      2 Scr=      1
 Normal termination of Gaussian 09 at Wed Aug  3 20:46:31 2016.
