 Entering Gaussian System, Link 0=/home/proyectos/fulerenos/M3C-v2.0/M3C-deps_CCC/g09-AM64L-G09RevC.01/g09
 Initial command:
 /home/proyectos/fulerenos/M3C-v2.0/M3C-deps_CCC/g09-AM64L-G09RevC.01/l1.exe "/scratch/naguirre/gaussian/Gau-5997.inp" -scrdir="/scratch/naguirre/gaussian/"
 Entering Link 1 = /home/proyectos/fulerenos/M3C-v2.0/M3C-deps_CCC/g09-AM64L-G09RevC.01/l1.exe PID=      6004.
  
 Copyright (c) 1988,1990,1992,1993,1995,1998,2003,2009,2015,
            Gaussian, Inc.  All Rights Reserved.
  
 This is part of the Gaussian(R) 09 program.  It is based on
 the Gaussian(R) 03 system (copyright 2003, Gaussian, Inc.),
 the Gaussian(R) 98 system (copyright 1998, Gaussian, Inc.),
 the Gaussian(R) 94 system (copyright 1995, Gaussian, Inc.),
 the Gaussian 92(TM) system (copyright 1992, Gaussian, Inc.),
 the Gaussian 90(TM) system (copyright 1990, Gaussian, Inc.),
 the Gaussian 88(TM) system (copyright 1988, Gaussian, Inc.),
 the Gaussian 86(TM) system (copyright 1986, Carnegie Mellon
 University), and the Gaussian 82(TM) system (copyright 1983,
 Carnegie Mellon University). Gaussian is a federally registered
 trademark of Gaussian, Inc.
  
 This software contains proprietary and confidential information,
 including trade secrets, belonging to Gaussian, Inc.
  
 This software is provided under written license and may be
 used, copied, transmitted, or stored only in accord with that
 written license.
  
 The following legend is applicable only to US Government
 contracts under FAR:
  
                    RESTRICTED RIGHTS LEGEND
  
 Use, reproduction and disclosure by the US Government is
 subject to restrictions as set forth in subparagraphs (a)
 and (c) of the Commercial Computer Software - Restricted
 Rights clause in FAR 52.227-19.
  
 Gaussian, Inc.
 340 Quinnipiac St., Bldg. 40, Wallingford CT 06492
  
  
 ---------------------------------------------------------------
 Warning -- This program may not be used in any manner that
 competes with the business of Gaussian, Inc. or will provide
 assistance to any competitor of Gaussian, Inc.  The licensee
 of this program is prohibited from giving any competitor of
 Gaussian, Inc. access to this program.  By using this program,
 the user acknowledges that Gaussian, Inc. is engaged in the
 business of creating and licensing software in the field of
 computational chemistry and represents and warrants to the
 licensee that it is not a competitor of Gaussian, Inc. and that
 it will not use this program in any manner prohibited above.
 ---------------------------------------------------------------
  

 Cite this work as:
 Gaussian 09, Revision E.01,
 M. J. Frisch, G. W. Trucks, H. B. Schlegel, G. E. Scuseria, 
 M. A. Robb, J. R. Cheeseman, G. Scalmani, V. Barone, B. Mennucci, 
 G. A. Petersson, H. Nakatsuji, M. Caricato, X. Li, H. P. Hratchian, 
 A. F. Izmaylov, J. Bloino, G. Zheng, J. L. Sonnenberg, M. Hada, 
 M. Ehara, K. Toyota, R. Fukuda, J. Hasegawa, M. Ishida, T. Nakajima, 
 Y. Honda, O. Kitao, H. Nakai, T. Vreven, J. A. Montgomery, Jr., 
 J. E. Peralta, F. Ogliaro, M. Bearpark, J. J. Heyd, E. Brothers, 
 K. N. Kudin, V. N. Staroverov, T. Keith, R. Kobayashi, J. Normand, 
 K. Raghavachari, A. Rendell, J. C. Burant, S. S. Iyengar, J. Tomasi, 
 M. Cossi, N. Rega, J. M. Millam, M. Klene, J. E. Knox, J. B. Cross, 
 V. Bakken, C. Adamo, J. Jaramillo, R. Gomperts, R. E. Stratmann, 
 O. Yazyev, A. J. Austin, R. Cammi, C. Pomelli, J. W. Ochterski, 
 R. L. Martin, K. Morokuma, V. G. Zakrzewski, G. A. Voth, 
 P. Salvador, J. J. Dannenberg, S. Dapprich, A. D. Daniels, 
 O. Farkas, J. B. Foresman, J. V. Ortiz, J. Cioslowski, 
 and D. J. Fox, Gaussian, Inc., Wallingford CT, 2013.
 
 ******************************************
 Gaussian 09:  EM64L-G09RevE.01 30-Nov-2015
                 3-Aug-2016 
 ******************************************
 %NProcShared=4
 Will use up to    4 processors via shared memory.
 ------------------------------
 #p b3lyp/6-311++G(3df,2p) freq
 ------------------------------
 1/10=4,30=1,38=1/1,3;
 2/12=2,17=6,18=5,40=1/2;
 3/5=4,6=6,7=1216,11=2,16=1,25=1,30=1,71=2,74=-5,140=1/1,2,3;
 4//1;
 5/5=2,38=5,98=1/2;
 8/6=4,10=90,11=11/1;
 11/6=1,8=1,9=11,15=111,16=1/1,2,10;
 10/6=1/2;
 6/7=2,8=2,9=2,10=2,18=1,28=1/1;
 7/8=1,10=1,25=1/1,2,3,16;
 1/10=4,30=1/3;
 99//99;
 Leave Link    1 at Wed Aug  3 22:48:48 2016, MaxMem=           0 cpu:         0.3
 (Enter /home/proyectos/fulerenos/M3C-v2.0/M3C-deps_CCC/g09-AM64L-G09RevC.01/l101.exe)
 ---------
 b3lyp opt
 ---------
 Symbolic Z-matrix:
 Charge =  2 Multiplicity = 3
 S                     0.29404  -0.10789   0. 
 H                    -1.39109  -0.02968   0. 
 H                    -1.06784   0.88763   0. 
 
 NAtoms=      3 NQM=        3 NQMF=       0 NMMI=      0 NMMIF=      0
                NMic=       0 NMicF=      0.
                    Isotopes and Nuclear Properties:
 (Nuclear quadrupole moments (NQMom) in fm**2, nuclear magnetic moments (NMagM)
  in nuclear magnetons)

  Atom         1           2           3
 IAtWgt=          32           1           1
 AtmWgt=  31.9720718   1.0078250   1.0078250
 NucSpn=           0           1           1
 AtZEff=   0.0000000   0.0000000   0.0000000
 NQMom=    0.0000000   0.0000000   0.0000000
 NMagM=    0.0000000   2.7928460   2.7928460
 AtZNuc=  16.0000000   1.0000000   1.0000000
 Leave Link  101 at Wed Aug  3 22:48:48 2016, MaxMem=    33554432 cpu:         0.2
 (Enter /home/proyectos/fulerenos/M3C-v2.0/M3C-deps_CCC/g09-AM64L-G09RevC.01/l103.exe)

 GradGradGradGradGradGradGradGradGradGradGradGradGradGradGradGradGradGrad
 Berny optimization.
 Initialization pass.
 Trust Radius=3.00D-01 FncErr=1.00D-07 GrdErr=1.00D-07
 Number of steps in this run=      2 maximum allowed number of steps=      2.
 GradGradGradGradGradGradGradGradGradGradGradGradGradGradGradGradGradGrad

 Leave Link  103 at Wed Aug  3 22:48:48 2016, MaxMem=    33554432 cpu:         0.1
 (Enter /home/proyectos/fulerenos/M3C-v2.0/M3C-deps_CCC/g09-AM64L-G09RevC.01/l202.exe)
                          Input orientation:                          
 ---------------------------------------------------------------------
 Center     Atomic      Atomic             Coordinates (Angstroms)
 Number     Number       Type             X           Y           Z
 ---------------------------------------------------------------------
      1         16           0        0.294035   -0.107887    0.000000
      2          1           0       -1.391092   -0.029679    0.000000
      3          1           0       -1.067845    0.887631    0.000000
 ---------------------------------------------------------------------
                    Distance matrix (angstroms):
                    1          2          3
     1  S    0.000000
     2  H    1.686941   0.000000
     3  H    1.686941   0.972597   0.000000
 Stoichiometry    H2S(2+,3)
 Framework group  C2V[C2(S),SGV(H2)]
 Deg. of freedom     2
 Full point group                 C2V     NOp   4
 Largest Abelian subgroup         C2V     NOp   4
 Largest concise Abelian subgroup C2      NOp   2
                         Standard orientation:                         
 ---------------------------------------------------------------------
 Center     Atomic      Atomic             Coordinates (Angstroms)
 Number     Number       Type             X           Y           Z
 ---------------------------------------------------------------------
      1         16           0        0.000000   -0.000000    0.179481
      2          1           0       -0.000000    0.486299   -1.435847
      3          1           0       -0.000000   -0.486299   -1.435847
 ---------------------------------------------------------------------
 Rotational constants (GHZ):   1060.2198378    102.1484662     93.1716994
 Leave Link  202 at Wed Aug  3 22:48:48 2016, MaxMem=    33554432 cpu:         0.0
 (Enter /home/proyectos/fulerenos/M3C-v2.0/M3C-deps_CCC/g09-AM64L-G09RevC.01/l301.exe)
 Standard basis: 6-311++G(3df,2p) (5D, 7F)
 Ernie: Thresh=  0.10000D-02 Tol=  0.10000D-05 Strict=F.
 There are    33 symmetry adapted cartesian basis functions of A1  symmetry.
 There are     6 symmetry adapted cartesian basis functions of A2  symmetry.
 There are    14 symmetry adapted cartesian basis functions of B1  symmetry.
 There are    20 symmetry adapted cartesian basis functions of B2  symmetry.
 There are    29 symmetry adapted basis functions of A1  symmetry.
 There are     6 symmetry adapted basis functions of A2  symmetry.
 There are    13 symmetry adapted basis functions of B1  symmetry.
 There are    19 symmetry adapted basis functions of B2  symmetry.
    67 basis functions,    96 primitive gaussians,    73 cartesian basis functions
     9 alpha electrons        7 beta electrons
       nuclear repulsion energy        10.5821774889 Hartrees.
 IExCor=  402 DFT=T Ex+Corr=B3LYP ExCW=0 ScaHFX=  0.200000
 ScaDFX=  0.800000  0.720000  1.000000  0.810000 ScalE2=  1.000000  1.000000
 IRadAn=      0 IRanWt=     -1 IRanGd=            0 ICorTp=0 IEmpDi=  4
 NAtoms=    3 NActive=    3 NUniq=    2 SFac= 2.25D+00 NAtFMM=   60 NAOKFM=F Big=F
 Integral buffers will be    131072 words long.
 Raffenetti 2 integral format.
 Two-electron integral symmetry is turned on.
 Leave Link  301 at Wed Aug  3 22:48:48 2016, MaxMem=    33554432 cpu:         0.2
 (Enter /home/proyectos/fulerenos/M3C-v2.0/M3C-deps_CCC/g09-AM64L-G09RevC.01/l302.exe)
 NPDir=0 NMtPBC=     1 NCelOv=     1 NCel=       1 NClECP=     1 NCelD=      1
         NCelK=      1 NCelE2=     1 NClLst=     1 CellRange=     0.0.
 One-electron integrals computed using PRISM.
 One-electron integral symmetry used in STVInt
 NBasis=    67 RedAO= T EigKep=  5.15D-03  NBF=    29     6    13    19
 NBsUse=    67 1.00D-06 EigRej= -1.00D+00 NBFU=    29     6    13    19
 Precomputing XC quadrature grid using
 IXCGrd= 4 IRadAn=           0 IRanWt=          -1 IRanGd=           0 AccXCQ= 0.00D+00.
 Generated NRdTot=       0 NPtTot=           0 NUsed=           0 NTot=          32
 NSgBfM=    73    73    73    73    73 MxSgAt=     3 MxSgA2=     3.
 Leave Link  302 at Wed Aug  3 22:48:48 2016, MaxMem=    33554432 cpu:         0.8
 (Enter /home/proyectos/fulerenos/M3C-v2.0/M3C-deps_CCC/g09-AM64L-G09RevC.01/l303.exe)
 DipDrv:  MaxL=1.
 Leave Link  303 at Wed Aug  3 22:48:48 2016, MaxMem=    33554432 cpu:         0.1
 (Enter /home/proyectos/fulerenos/M3C-v2.0/M3C-deps_CCC/g09-AM64L-G09RevC.01/l401.exe)
 ExpMin= 3.60D-02 ExpMax= 9.34D+04 ExpMxC= 3.17D+03 IAcc=3 IRadAn=         5 AccDes= 0.00D+00
 Harris functional with IExCor=  402 and IRadAn=       5 diagonalized for initial guess.
 HarFok:  IExCor=  402 AccDes= 0.00D+00 IRadAn=         5 IDoV= 1 UseB2=F ITyADJ=14
 ICtDFT=  3500011 ScaDFX=  1.000000  1.000000  1.000000  1.000000
 FoFCou: FMM=F IPFlag=           0 FMFlag=      100000 FMFlg1=           0
         NFxFlg=           0 DoJE=T BraDBF=F KetDBF=T FulRan=T
         wScrn=  0.000000 ICntrl=     500 IOpCl=  0 I1Cent=   200000004 NGrid=           0
         NMat0=    1 NMatS0=      1 NMatT0=    0 NMatD0=    1 NMtDS0=    0 NMtDT0=    0
 Petite list used in FoFCou.
 Harris En= -398.760051499326    
 JPrj=0 DoOrth=F DoCkMO=F.
 Initial guess orbital symmetries:
 Alpha Orbitals:
       Occupied  (A1) (A1) (A1) (B2) (B1) (A1) (A1) (B2) (B1)
       Virtual   (A1) (B2) (A1) (A1) (B1) (B2) (A1) (B2) (B1) (A1)
                 (A2) (A1) (B2) (A1) (B1) (B2) (A1) (B2) (B1) (A1)
                 (A1) (A2) (A1) (B2) (B1) (A1) (A2) (B2) (A1) (B2)
                 (B1) (B1) (B2) (A1) (B2) (A1) (A2) (B1) (B2) (A1)
                 (B2) (A1) (A1) (B1) (A2) (A1) (B2) (B1) (A1) (A2)
                 (B2) (A1) (B2) (A1) (B1) (B2) (A1) (A1)
 Beta  Orbitals:
       Occupied  (A1) (A1) (A1) (B2) (B1) (A1) (A1)
       Virtual   (B2) (B1) (A1) (B2) (A1) (A1) (B1) (B2) (A1) (B2)
                 (B1) (A1) (A2) (A1) (B2) (A1) (B1) (B2) (A1) (B2)
                 (B1) (A1) (A1) (A2) (A1) (B2) (B1) (A1) (A2) (B2)
                 (A1) (B2) (B1) (B1) (B2) (A1) (B2) (A1) (A2) (B1)
                 (B2) (A1) (B2) (A1) (A1) (B1) (A2) (A1) (B2) (B1)
                 (A1) (A2) (B2) (A1) (B2) (A1) (B1) (B2) (A1) (A1)
 The electronic state of the initial guess is 3-A2.
 Initial guess <Sx>= 0.0000 <Sy>= 0.0000 <Sz>= 1.0000 <S**2>= 2.0000 S= 1.0000
 Leave Link  401 at Wed Aug  3 22:48:49 2016, MaxMem=    33554432 cpu:         0.9
 (Enter /home/proyectos/fulerenos/M3C-v2.0/M3C-deps_CCC/g09-AM64L-G09RevC.01/l502.exe)
 UHF open shell SCF:
 Using DIIS extrapolation, IDIIS=  1040.
 Integral symmetry usage will be decided dynamically.
 Keep R1 and R2 ints in memory in symmetry-blocked form, NReq=4603164.
 IVT=       35677 IEndB=       35677 NGot=    33554432 MDV=    32152765
 LenX=    32152765 LenY=    32146995
 Requested convergence on RMS density matrix=1.00D-08 within 128 cycles.
 Requested convergence on MAX density matrix=1.00D-06.
 Requested convergence on             energy=1.00D-06.
 No special actions if energy rises.
 FoFCou: FMM=F IPFlag=           0 FMFlag=           0 FMFlg1=           0
         NFxFlg=           0 DoJE=F BraDBF=F KetDBF=F FulRan=T
         wScrn=  0.000000 ICntrl=     600 IOpCl=  0 I1Cent=           0 NGrid=           0
         NMat0=    1 NMatS0=   2278 NMatT0=    0 NMatD0=    1 NMtDS0=    0 NMtDT0=    0
 Petite list used in FoFCou.

 Cycle   1  Pass 1  IDiag  1:
 E= -398.099490837946    
 DIIS: error= 5.95D-02 at cycle   1 NSaved=   1.
 NSaved= 1 IEnMin= 1 EnMin= -398.099490837946     IErMin= 1 ErrMin= 5.95D-02
 ErrMax= 5.95D-02  0.00D+00 EMaxC= 1.00D-01 BMatC= 4.40D-01 BMatP= 4.40D-01
 IDIUse=3 WtCom= 4.05D-01 WtEn= 5.95D-01
 Coeff-Com:  0.100D+01
 Coeff-En:   0.100D+01
 Coeff:      0.100D+01
 Gap=     0.271 Goal=   None    Shift=    0.000
 Gap=     0.220 Goal=   None    Shift=    0.000
 GapD=    0.220 DampG=1.000 DampE=0.500 DampFc=0.5000 IDamp=-1.
 Damping current iteration by 5.00D-01
 RMSDP=9.20D-03 MaxDP=3.33D-01              OVMax= 2.59D-01

 Cycle   2  Pass 1  IDiag  1:
 E= -398.165745145783     Delta-E=       -0.066254307837 Rises=F Damp=T
 DIIS: error= 1.82D-02 at cycle   2 NSaved=   2.
 NSaved= 2 IEnMin= 2 EnMin= -398.165745145783     IErMin= 2 ErrMin= 1.82D-02
 ErrMax= 1.82D-02  0.00D+00 EMaxC= 1.00D-01 BMatC= 3.69D-02 BMatP= 4.40D-01
 IDIUse=3 WtCom= 8.18D-01 WtEn= 1.82D-01
 Coeff-Com: -0.152D+00 0.115D+01
 Coeff-En:   0.000D+00 0.100D+01
 Coeff:     -0.125D+00 0.112D+01
 Gap=     0.219 Goal=   None    Shift=    0.000
 Gap=     0.277 Goal=   None    Shift=    0.000
 RMSDP=2.57D-03 MaxDP=7.22D-02 DE=-6.63D-02 OVMax= 1.59D-01

 Cycle   3  Pass 1  IDiag  1:
 E= -398.226261307514     Delta-E=       -0.060516161731 Rises=F Damp=F
 DIIS: error= 6.05D-03 at cycle   3 NSaved=   3.
 NSaved= 3 IEnMin= 3 EnMin= -398.226261307514     IErMin= 3 ErrMin= 6.05D-03
 ErrMax= 6.05D-03  0.00D+00 EMaxC= 1.00D-01 BMatC= 5.15D-03 BMatP= 3.69D-02
 IDIUse=3 WtCom= 9.39D-01 WtEn= 6.05D-02
 Coeff-Com: -0.617D-01 0.276D+00 0.785D+00
 Coeff-En:   0.000D+00 0.000D+00 0.100D+01
 Coeff:     -0.579D-01 0.260D+00 0.798D+00
 Gap=     0.243 Goal=   None    Shift=    0.000
 Gap=     0.270 Goal=   None    Shift=    0.000
 RMSDP=8.09D-04 MaxDP=1.64D-02 DE=-6.05D-02 OVMax= 3.77D-02

 Cycle   4  Pass 1  IDiag  1:
 E= -398.227755938603     Delta-E=       -0.001494631089 Rises=F Damp=F
 DIIS: error= 2.92D-03 at cycle   4 NSaved=   4.
 NSaved= 4 IEnMin= 4 EnMin= -398.227755938603     IErMin= 4 ErrMin= 2.92D-03
 ErrMax= 2.92D-03  0.00D+00 EMaxC= 1.00D-01 BMatC= 1.54D-03 BMatP= 5.15D-03
 IDIUse=3 WtCom= 9.71D-01 WtEn= 2.92D-02
 Coeff-Com: -0.495D-02 0.143D-01 0.351D+00 0.640D+00
 Coeff-En:   0.000D+00 0.000D+00 0.982D-01 0.902D+00
 Coeff:     -0.481D-02 0.138D-01 0.343D+00 0.648D+00
 Gap=     0.242 Goal=   None    Shift=    0.000
 Gap=     0.271 Goal=   None    Shift=    0.000
 RMSDP=2.56D-04 MaxDP=5.29D-03 DE=-1.49D-03 OVMax= 1.30D-02

 Cycle   5  Pass 1  IDiag  1:
 E= -398.228173336361     Delta-E=       -0.000417397758 Rises=F Damp=F
 DIIS: error= 1.83D-04 at cycle   5 NSaved=   5.
 NSaved= 5 IEnMin= 5 EnMin= -398.228173336361     IErMin= 5 ErrMin= 1.83D-04
 ErrMax= 1.83D-04  0.00D+00 EMaxC= 1.00D-01 BMatC= 6.64D-06 BMatP= 1.54D-03
 IDIUse=3 WtCom= 9.98D-01 WtEn= 1.83D-03
 Coeff-Com: -0.109D-02-0.294D-02-0.114D-01-0.292D-01 0.104D+01
 Coeff-En:   0.000D+00 0.000D+00 0.000D+00 0.000D+00 0.100D+01
 Coeff:     -0.109D-02-0.294D-02-0.114D-01-0.292D-01 0.104D+01
 Gap=     0.242 Goal=   None    Shift=    0.000
 Gap=     0.272 Goal=   None    Shift=    0.000
 RMSDP=2.82D-05 MaxDP=5.91D-04 DE=-4.17D-04 OVMax= 1.30D-03

 Cycle   6  Pass 1  IDiag  1:
 E= -398.228177570225     Delta-E=       -0.000004233864 Rises=F Damp=F
 DIIS: error= 5.77D-05 at cycle   6 NSaved=   6.
 NSaved= 6 IEnMin= 6 EnMin= -398.228177570225     IErMin= 6 ErrMin= 5.77D-05
 ErrMax= 5.77D-05  0.00D+00 EMaxC= 1.00D-01 BMatC= 4.73D-07 BMatP= 6.64D-06
 IDIUse=1 WtCom= 1.00D+00 WtEn= 0.00D+00
 Coeff-Com:  0.271D-03-0.225D-03-0.660D-02-0.778D-03-0.204D+00 0.121D+01
 Coeff:      0.271D-03-0.225D-03-0.660D-02-0.778D-03-0.204D+00 0.121D+01
 Gap=     0.242 Goal=   None    Shift=    0.000
 Gap=     0.272 Goal=   None    Shift=    0.000
 RMSDP=9.55D-06 MaxDP=2.65D-04 DE=-4.23D-06 OVMax= 5.42D-04

 Cycle   7  Pass 1  IDiag  1:
 E= -398.228177951044     Delta-E=       -0.000000380819 Rises=F Damp=F
 DIIS: error= 2.23D-05 at cycle   7 NSaved=   7.
 NSaved= 7 IEnMin= 7 EnMin= -398.228177951044     IErMin= 7 ErrMin= 2.23D-05
 ErrMax= 2.23D-05  0.00D+00 EMaxC= 1.00D-01 BMatC= 4.92D-08 BMatP= 4.73D-07
 IDIUse=1 WtCom= 1.00D+00 WtEn= 0.00D+00
 Coeff-Com:  0.243D-03-0.249D-03 0.184D-03-0.334D-04-0.487D-01 0.104D+00
 Coeff-Com:  0.945D+00
 Coeff:      0.243D-03-0.249D-03 0.184D-03-0.334D-04-0.487D-01 0.104D+00
 Coeff:      0.945D+00
 Gap=     0.242 Goal=   None    Shift=    0.000
 Gap=     0.272 Goal=   None    Shift=    0.000
 RMSDP=2.25D-06 MaxDP=8.71D-05 DE=-3.81D-07 OVMax= 1.85D-04

 Cycle   8  Pass 1  IDiag  1:
 E= -398.228177983862     Delta-E=       -0.000000032818 Rises=F Damp=F
 DIIS: error= 6.37D-06 at cycle   8 NSaved=   8.
 NSaved= 8 IEnMin= 8 EnMin= -398.228177983862     IErMin= 8 ErrMin= 6.37D-06
 ErrMax= 6.37D-06  0.00D+00 EMaxC= 1.00D-01 BMatC= 4.44D-09 BMatP= 4.92D-08
 IDIUse=1 WtCom= 1.00D+00 WtEn= 0.00D+00
 Coeff-Com: -0.945D-04 0.166D-03 0.674D-03 0.407D-03 0.211D-01-0.125D+00
 Coeff-Com: -0.988D-01 0.120D+01
 Coeff:     -0.945D-04 0.166D-03 0.674D-03 0.407D-03 0.211D-01-0.125D+00
 Coeff:     -0.988D-01 0.120D+01
 Gap=     0.242 Goal=   None    Shift=    0.000
 Gap=     0.272 Goal=   None    Shift=    0.000
 RMSDP=1.15D-06 MaxDP=4.45D-05 DE=-3.28D-08 OVMax= 9.29D-05

 Cycle   9  Pass 1  IDiag  1:
 E= -398.228177989809     Delta-E=       -0.000000005946 Rises=F Damp=F
 DIIS: error= 1.70D-06 at cycle   9 NSaved=   9.
 NSaved= 9 IEnMin= 9 EnMin= -398.228177989809     IErMin= 9 ErrMin= 1.70D-06
 ErrMax= 1.70D-06  0.00D+00 EMaxC= 1.00D-01 BMatC= 4.08D-10 BMatP= 4.44D-09
 IDIUse=1 WtCom= 1.00D+00 WtEn= 0.00D+00
 Coeff-Com:  0.200D-04-0.509D-04-0.203D-03-0.154D-03-0.222D-02 0.320D-01
 Coeff-Com: -0.347D-01-0.533D+00 0.154D+01
 Coeff:      0.200D-04-0.509D-04-0.203D-03-0.154D-03-0.222D-02 0.320D-01
 Coeff:     -0.347D-01-0.533D+00 0.154D+01
 Gap=     0.242 Goal=   None    Shift=    0.000
 Gap=     0.272 Goal=   None    Shift=    0.000
 RMSDP=6.11D-07 MaxDP=1.80D-05 DE=-5.95D-09 OVMax= 4.15D-05

 Cycle  10  Pass 1  IDiag  1:
 E= -398.228177990590     Delta-E=       -0.000000000782 Rises=F Damp=F
 DIIS: error= 1.55D-07 at cycle  10 NSaved=  10.
 NSaved=10 IEnMin=10 EnMin= -398.228177990590     IErMin=10 ErrMin= 1.55D-07
 ErrMax= 1.55D-07  0.00D+00 EMaxC= 1.00D-01 BMatC= 4.69D-12 BMatP= 4.08D-10
 IDIUse=1 WtCom= 1.00D+00 WtEn= 0.00D+00
 Coeff-Com: -0.170D-05 0.625D-05 0.169D-04 0.246D-04-0.174D-03-0.228D-02
 Coeff-Com:  0.788D-02 0.617D-01-0.295D+00 0.123D+01
 Coeff:     -0.170D-05 0.625D-05 0.169D-04 0.246D-04-0.174D-03-0.228D-02
 Coeff:      0.788D-02 0.617D-01-0.295D+00 0.123D+01
 Gap=     0.242 Goal=   None    Shift=    0.000
 Gap=     0.272 Goal=   None    Shift=    0.000
 RMSDP=6.94D-08 MaxDP=1.78D-06 DE=-7.82D-10 OVMax= 4.41D-06

 Cycle  11  Pass 1  IDiag  1:
 E= -398.228177990597     Delta-E=       -0.000000000007 Rises=F Damp=F
 DIIS: error= 2.34D-08 at cycle  11 NSaved=  11.
 NSaved=11 IEnMin=11 EnMin= -398.228177990597     IErMin=11 ErrMin= 2.34D-08
 ErrMax= 2.34D-08  0.00D+00 EMaxC= 1.00D-01 BMatC= 3.86D-14 BMatP= 4.69D-12
 IDIUse=1 WtCom= 1.00D+00 WtEn= 0.00D+00
 Coeff-Com:  0.181D-06-0.593D-06-0.136D-05 0.161D-05 0.195D-04 0.173D-03
 Coeff-Com: -0.102D-02-0.400D-02 0.274D-01-0.166D+00 0.114D+01
 Coeff:      0.181D-06-0.593D-06-0.136D-05 0.161D-05 0.195D-04 0.173D-03
 Coeff:     -0.102D-02-0.400D-02 0.274D-01-0.166D+00 0.114D+01
 Gap=     0.242 Goal=   None    Shift=    0.000
 Gap=     0.272 Goal=   None    Shift=    0.000
 RMSDP=2.50D-09 MaxDP=5.46D-08 DE=-6.71D-12 OVMax= 1.32D-07

 SCF Done:  E(UB3LYP) =  -398.228177991     A.U. after   11 cycles
            NFock= 11  Conv=0.25D-08     -V/T= 2.0013
 <Sx>= 0.0000 <Sy>= 0.0000 <Sz>= 1.0000 <S**2>= 2.0059 S= 1.0020
 <L.S>= 0.000000000000E+00
 KE= 3.976933271054D+02 PE=-9.562715105678D+02 EE= 1.497678279829D+02
 Annihilation of the first spin contaminant:
 S**2 before annihilation     2.0059,   after     2.0000
 Leave Link  502 at Wed Aug  3 22:48:50 2016, MaxMem=    33554432 cpu:         4.0
 (Enter /home/proyectos/fulerenos/M3C-v2.0/M3C-deps_CCC/g09-AM64L-G09RevC.01/l801.exe)
 DoSCS=F DFT=T ScalE2(SS,OS)=  1.000000  1.000000
 Range of M.O.s used for correlation:     1    67
 NBasis=    67 NAE=     9 NBE=     7 NFC=     0 NFV=     0
 NROrb=     67 NOA=     9 NOB=     7 NVA=    58 NVB=    60
 Leave Link  801 at Wed Aug  3 22:48:50 2016, MaxMem=    33554432 cpu:         0.1
 (Enter /home/proyectos/fulerenos/M3C-v2.0/M3C-deps_CCC/g09-AM64L-G09RevC.01/l1101.exe)
 Using compressed storage, NAtomX=     3.
 Will process      4 centers per pass.
 Leave Link 1101 at Wed Aug  3 22:48:50 2016, MaxMem=    33554432 cpu:         0.9
 (Enter /home/proyectos/fulerenos/M3C-v2.0/M3C-deps_CCC/g09-AM64L-G09RevC.01/l1102.exe)
 Symmetrizing basis deriv contribution to polar:
 IMax=3 JMax=2 DiffMx= 0.00D+00
 Leave Link 1102 at Wed Aug  3 22:48:50 2016, MaxMem=    33554432 cpu:         0.1
 (Enter /home/proyectos/fulerenos/M3C-v2.0/M3C-deps_CCC/g09-AM64L-G09RevC.01/l1110.exe)
 Forming Gx(P) for the SCF density, NAtomX=     3.
 Integral derivatives from FoFJK, PRISM(SPDF).
 Do as many integral derivatives as possible in FoFJK.
 G2DrvN: MDV=      33554304.
 G2DrvN: will do     4 centers at a time, making    1 passes.
 Calling FoFCou, ICntrl=  3107 FMM=F I1Cent=   0 AccDes= 0.00D+00.
 FoFJK:  IHMeth= 1 ICntrl=    3107 DoSepK=F KAlg= 0 I1Cent=   0 FoldK=F
 IRaf=         0 NMat=   1 IRICut=       1 DoRegI=T DoRafI=F ISym2E= 1.
 FoFCou: FMM=F IPFlag=           0 FMFlag=      100000 FMFlg1=           0
         NFxFlg=           0 DoJE=F BraDBF=F KetDBF=F FulRan=T
         wScrn=  0.000000 ICntrl=    3107 IOpCl=  1 I1Cent=           0 NGrid=           0
         NMat0=    1 NMatS0=      1 NMatT0=    0 NMatD0=    1 NMtDS0=    0 NMtDT0=    0
 Petite list used in FoFCou.
 End of G2Drv F.D. properties file   721 does not exist.
 End of G2Drv F.D. properties file   722 does not exist.
 End of G2Drv F.D. properties file   788 does not exist.
 Leave Link 1110 at Wed Aug  3 22:48:51 2016, MaxMem=    33554432 cpu:         4.6
 (Enter /home/proyectos/fulerenos/M3C-v2.0/M3C-deps_CCC/g09-AM64L-G09RevC.01/l1002.exe)
 Minotr:  UHF open shell wavefunction.
          IDoAtm=111
          Direct CPHF calculation.
          Differentiating once with respect to electric field.
                with respect to dipole field.
          Differentiating once with respect to nuclear coordinates.
          Using symmetry in CPHF.
          Requested convergence is 1.0D-08 RMS, and 1.0D-07 maximum.
          Secondary convergence is 1.0D-12 RMS, and 1.0D-12 maximum.
          NewPWx=T KeepS1=F KeepF1=F KeepIn=T MapXYZ=F SortEE=F KeepMc=T.
          MDV=      33554264 using IRadAn=       2.
 Generate precomputed XC quadrature information.
 Keep R1 and R2 ints in memory in symmetry-blocked form, NReq=4579915.
 FoFCou: FMM=F IPFlag=           0 FMFlag=           0 FMFlg1=           0
         NFxFlg=           0 DoJE=F BraDBF=F KetDBF=F FulRan=T
         wScrn=  0.000000 ICntrl=     600 IOpCl=  0 I1Cent=           0 NGrid=           0
         NMat0=    1 NMatS0=   2278 NMatT0=    0 NMatD0=    1 NMtDS0=    0 NMtDT0=    0
 Petite list used in FoFCou.
          Solving linear equations simultaneously, MaxMat=       0.
          There are     9 degrees of freedom in the 1st order CPHF.  IDoFFX=4 NUNeed=     9.
      9 vectors produced by pass  0 Test12= 1.05D-14 1.11D-08 XBig12= 4.06D+01 4.07D+00.
 AX will form     9 AO Fock derivatives at one time.
      9 vectors produced by pass  1 Test12= 1.05D-14 1.11D-08 XBig12= 1.92D+00 3.93D-01.
      9 vectors produced by pass  2 Test12= 1.05D-14 1.11D-08 XBig12= 1.67D-02 7.69D-02.
      9 vectors produced by pass  3 Test12= 1.05D-14 1.11D-08 XBig12= 3.04D-04 6.67D-03.
      9 vectors produced by pass  4 Test12= 1.05D-14 1.11D-08 XBig12= 3.20D-06 6.28D-04.
      9 vectors produced by pass  5 Test12= 1.05D-14 1.11D-08 XBig12= 1.17D-08 3.38D-05.
      5 vectors produced by pass  6 Test12= 1.05D-14 1.11D-08 XBig12= 3.61D-11 2.62D-06.
      4 vectors produced by pass  7 Test12= 1.05D-14 1.11D-08 XBig12= 7.98D-14 9.40D-08.
      1 vectors produced by pass  8 Test12= 1.05D-14 1.11D-08 XBig12= 4.22D-16 1.12D-08.
 InvSVY:  IOpt=1 It=  1 EMax= 8.88D-16
 Solved reduced A of dimension    64 with     9 vectors.
 FullF1:  Do perturbations    1 to     9.
 Isotropic polarizability for W=    0.000000       13.51 Bohr**3.
 End of Minotr F.D. properties file   721 does not exist.
 End of Minotr F.D. properties file   722 does not exist.
 End of Minotr F.D. properties file   788 does not exist.
 Leave Link 1002 at Wed Aug  3 22:48:55 2016, MaxMem=    33554432 cpu:        13.0
 (Enter /home/proyectos/fulerenos/M3C-v2.0/M3C-deps_CCC/g09-AM64L-G09RevC.01/l601.exe)
 Copying SCF densities to generalized density rwf, IOpCl= 1 IROHF=0.

 **********************************************************************

            Population analysis using the SCF density.

 **********************************************************************

 Orbital symmetries:
 Alpha Orbitals:
       Occupied  (A1) (A1) (B2) (B1) (A1) (A1) (A1) (B2) (B1)
       Virtual   (A1) (B2) (B1) (A1) (A2) (A1) (A1) (B2) (B1) (A1)
                 (B2) (A1) (B2) (B1) (A1) (B2) (A1) (B2) (B1) (A1)
                 (A1) (A2) (A1) (B1) (A1) (B2) (A2) (B2) (A1) (B2)
                 (B1) (B2) (B1) (A1) (B2) (A1) (A2) (B1) (B2) (A1)
                 (B2) (A1) (A1) (B1) (A2) (A1) (B2) (B1) (A1) (A2)
                 (B2) (A1) (B2) (A1) (B1) (B2) (A1) (A1)
 Beta  Orbitals:
       Occupied  (A1) (A1) (A1) (B2) (B1) (A1) (A1)
       Virtual   (B2) (B1) (A1) (B2) (A1) (B1) (A1) (A2) (A1) (B2)
                 (B1) (A1) (B2) (B2) (A1) (A1) (B1) (B2) (A1) (B2)
                 (B1) (A1) (A1) (A2) (A1) (B1) (B2) (A1) (A2) (B2)
                 (A1) (B2) (B1) (A1) (B1) (B2) (B2) (A1) (A2) (B1)
                 (B2) (A1) (B2) (A1) (A1) (B1) (A2) (A1) (B2) (B1)
                 (A1) (A2) (B2) (A1) (B2) (A1) (B1) (B2) (A1) (A1)
 The electronic state is 3-A2.
 Alpha  occ. eigenvalues --  -89.69753  -8.76348  -6.72897  -6.72849  -6.72460
 Alpha  occ. eigenvalues --   -1.46530  -1.14703  -1.01713  -1.00194
 Alpha virt. eigenvalues --   -0.75964  -0.59142  -0.42649  -0.41188  -0.38866
 Alpha virt. eigenvalues --   -0.38863  -0.32793  -0.31686  -0.30185  -0.24535
 Alpha virt. eigenvalues --   -0.22681  -0.19720  -0.19591  -0.09682  -0.08967
 Alpha virt. eigenvalues --   -0.07897  -0.06495   0.02144   0.05542   0.07729
 Alpha virt. eigenvalues --    0.23305   0.24539   0.29156   0.29977   0.31134
 Alpha virt. eigenvalues --    0.31483   0.31534   0.52291   0.54823   0.77225
 Alpha virt. eigenvalues --    0.90616   0.94998   0.95947   0.96813   0.97784
 Alpha virt. eigenvalues --    0.99246   1.00181   1.04344   1.33270   1.41990
 Alpha virt. eigenvalues --    2.00441   2.17528   2.60081   3.01237   3.23408
 Alpha virt. eigenvalues --    3.29423   3.38445   3.81490   3.81580   3.81637
 Alpha virt. eigenvalues --    3.93365   4.04946   4.12407   6.89295  16.45421
 Alpha virt. eigenvalues --   16.48684  16.65673 188.00573
  Beta  occ. eigenvalues --  -89.68338  -8.75068  -6.71663  -6.70353  -6.70187
  Beta  occ. eigenvalues --   -1.37862  -1.11932
  Beta virt. eigenvalues --   -0.84758  -0.82291  -0.73280  -0.56653  -0.39785
  Beta virt. eigenvalues --   -0.39263  -0.32134  -0.32087  -0.31974  -0.29741
  Beta virt. eigenvalues --   -0.28709  -0.24082  -0.20303  -0.19446  -0.18536
  Beta virt. eigenvalues --   -0.08692  -0.08369  -0.06841  -0.06258   0.02375
  Beta virt. eigenvalues --    0.06839   0.09989   0.25690   0.27284   0.31485
  Beta virt. eigenvalues --    0.33675   0.34408   0.35984   0.36530   0.53998
  Beta virt. eigenvalues --    0.56327   0.79250   1.00259   1.01391   1.01657
  Beta virt. eigenvalues --    1.02652   1.03774   1.04375   1.06767   1.09123
  Beta virt. eigenvalues --    1.36852   1.44167   2.01077   2.17717   2.60084
  Beta virt. eigenvalues --    3.01237   3.23452   3.29678   3.38714   3.83359
  Beta virt. eigenvalues --    3.84780   3.84864   3.95048   4.06458   4.12814
  Beta virt. eigenvalues --    6.91980  16.48879  16.52011  16.66849 188.01866
          Condensed to atoms (all electrons):
               1          2          3
     1  S   14.409873   0.151625   0.151625
     2  H    0.151625   0.332843   0.158971
     3  H    0.151625   0.158971   0.332843
          Atomic-Atomic Spin Densities.
               1          2          3
     1  S    1.934231   0.026148   0.026148
     2  H    0.026148   0.003780  -0.023191
     3  H    0.026148  -0.023191   0.003780
 Mulliken charges and spin densities:
               1          2
     1  S    1.286878   1.986527
     2  H    0.356561   0.006736
     3  H    0.356561   0.006736
 Sum of Mulliken charges =   2.00000   2.00000
 Mulliken charges and spin densities with hydrogens summed into heavy atoms:
               1          2
     1  S    2.000000   2.000000
 APT charges:
               1
     1  S    1.341107
     2  H    0.329446
     3  H    0.329446
 Sum of APT charges =   2.00000
 APT charges with hydrogens summed into heavy atoms:
               1
     1  S    2.000000
 Electronic spatial extent (au):  <R**2>=             31.5203
 Charge=              2.0000 electrons
 Dipole moment (field-independent basis, Debye):
    X=             -0.0000    Y=              0.0000    Z=             -3.3885  Tot=              3.3885
 Quadrupole moment (field-independent basis, Debye-Ang):
   XX=             -9.4527   YY=             -7.9693   ZZ=             -0.4213
   XY=              0.0000   XZ=              0.0000   YZ=             -0.0000
 Traceless Quadrupole moment (field-independent basis, Debye-Ang):
   XX=             -3.5049   YY=             -2.0215   ZZ=              5.5264
   XY=              0.0000   XZ=              0.0000   YZ=             -0.0000
 Octapole moment (field-independent basis, Debye-Ang**2):
  XXX=              0.0000  YYY=             -0.0000  ZZZ=            -12.1518  XYY=             -0.0000
  XXY=             -0.0000  XXZ=              0.1701  XZZ=             -0.0000  YZZ=              0.0000
  YYZ=             -1.9198  XYZ=             -0.0000
 Hexadecapole moment (field-independent basis, Debye-Ang**3):
 XXXX=             -8.3806 YYYY=             -8.6928 ZZZZ=              0.3330 XXXY=             -0.0000
 XXXZ=             -0.0000 YYYX=             -0.0000 YYYZ=              0.0000 ZZZX=              0.0000
 ZZZY=             -0.0000 XXYY=             -2.9144 XXZZ=             -4.8323 YYZZ=             -1.6816
 XXYZ=              0.0000 YYXZ=              0.0000 ZZXY=              0.0000
 N-N= 1.058217748885D+01 E-N=-9.562715103478D+02  KE= 3.976933271054D+02
 Symmetry A1   KE= 3.225727895023D+02
 Symmetry A2   KE= 4.763205769388D-36
 Symmetry B1   KE= 3.762365429280D+01
 Symmetry B2   KE= 3.749688331030D+01
  Exact polarizability:   9.995   0.000  11.521   0.000  -0.000  19.008
 Approx polarizability:  13.731   0.000  16.858   0.000   0.000  33.175
                          Isotropic Fermi Contact Couplings
        Atom                 a.u.       MegaHertz       Gauss      10(-4) cm-1
     1  S(33)             -0.02387      -4.09877      -1.46254      -1.36720
     2  H(1)              -0.00111      -2.47293      -0.88240      -0.82488
     3  H(1)              -0.00111      -2.47293      -0.88240      -0.82488
 --------------------------------------------------------
       Center         ----  Spin Dipole Couplings  ----
                      3XX-RR        3YY-RR        3ZZ-RR
 --------------------------------------------------------
     1   Atom        2.895858      2.358683     -5.254541
     2   Atom       -0.037772     -0.048978      0.086749
     3   Atom       -0.037772     -0.048978      0.086749
 --------------------------------------------------------
                        XY            XZ            YZ
 --------------------------------------------------------
     1   Atom       -0.000000      0.000000     -0.000000
     2   Atom       -0.000000      0.000000     -0.018954
     3   Atom       -0.000000      0.000000      0.018954
 --------------------------------------------------------


 ---------------------------------------------------------------------------------
              Anisotropic Spin Dipole Couplings in Principal Axis System
 ---------------------------------------------------------------------------------

       Atom             a.u.   MegaHertz   Gauss  10(-4) cm-1        Axes

              Baa    -5.2545  -215.431   -76.871   -71.860  0.0000  0.0000  1.0000
     1 S(33)  Bbb     2.3587    96.704    34.506    32.257  0.0000  1.0000  0.0000
              Bcc     2.8959   118.728    42.365    39.603  1.0000 -0.0000  0.0000
 
              Baa    -0.0516   -27.518    -9.819    -9.179 -0.0000  0.9907  0.1358
     2 H(1)   Bbb    -0.0378   -20.153    -7.191    -6.722  1.0000  0.0000  0.0000
              Bcc     0.0893    47.671    17.010    15.901  0.0000 -0.1358  0.9907
 
              Baa    -0.0516   -27.518    -9.819    -9.179  0.0000  0.9907 -0.1358
     3 H(1)   Bbb    -0.0378   -20.153    -7.191    -6.722  1.0000 -0.0000  0.0000
              Bcc     0.0893    47.671    17.010    15.901  0.0000  0.1358  0.9907
 

 ---------------------------------------------------------------------------------

 No NMR shielding tensors so no spin-rotation constants.
 Leave Link  601 at Wed Aug  3 22:48:55 2016, MaxMem=    33554432 cpu:         1.3
 (Enter /home/proyectos/fulerenos/M3C-v2.0/M3C-deps_CCC/g09-AM64L-G09RevC.01/l701.exe)
 Compute integral second derivatives.
 ... and contract with generalized density number  0.
 Leave Link  701 at Wed Aug  3 22:48:55 2016, MaxMem=    33554432 cpu:         1.1
 (Enter /home/proyectos/fulerenos/M3C-v2.0/M3C-deps_CCC/g09-AM64L-G09RevC.01/l702.exe)
 L702 exits ... SP integral derivatives will be done elsewhere.
 Leave Link  702 at Wed Aug  3 22:48:55 2016, MaxMem=    33554432 cpu:         0.1
 (Enter /home/proyectos/fulerenos/M3C-v2.0/M3C-deps_CCC/g09-AM64L-G09RevC.01/l703.exe)
 Compute integral second derivatives, UseDBF=F ICtDFT=           0.
 Integral derivatives from FoFJK, PRISM(SPDF).
 Calling FoFJK, ICntrl=    100127 FMM=F ISym2X=1 I1Cent= 0 IOpClX= 1 NMat=1 NMatS=1 NMatT=0.
 FoFJK:  IHMeth= 1 ICntrl=  100127 DoSepK=F KAlg= 0 I1Cent=   0 FoldK=F
 IRaf=         0 NMat=   1 IRICut=       1 DoRegI=T DoRafI=F ISym2E= 1.
 FoFCou: FMM=F IPFlag=           0 FMFlag=      100000 FMFlg1=         800
         NFxFlg=           0 DoJE=F BraDBF=F KetDBF=F FulRan=T
         wScrn=  0.000000 ICntrl=  100127 IOpCl=  1 I1Cent=           0 NGrid=           0
         NMat0=    1 NMatS0=      1 NMatT0=    0 NMatD0=    1 NMtDS0=    0 NMtDT0=    0
 Petite list used in FoFCou.
 Leave Link  703 at Wed Aug  3 22:48:58 2016, MaxMem=    33554432 cpu:         8.3
 (Enter /home/proyectos/fulerenos/M3C-v2.0/M3C-deps_CCC/g09-AM64L-G09RevC.01/l716.exe)
 Dipole        =-3.88272023D-17-3.02709247D-16-1.33315606D+00
 Polarizability= 9.99474849D+00 8.60549949D-10 1.15211951D+01
                 7.26445725D-10-1.01534131D-09 1.90075505D+01
 Full mass-weighted force constant matrix:
 Low frequencies ---  -43.9007  -41.3281  -40.9391   -0.0063   -0.0060   -0.0036
 Low frequencies ---  825.6682 1106.8836 2176.7302
 Diagonal vibrational polarizability:
        0.0000000       7.3786347       4.1063127
 Harmonic frequencies (cm**-1), IR intensities (KM/Mole), Raman scattering
 activities (A**4/AMU), depolarization ratios for plane and unpolarized
 incident light, reduced masses (AMU), force constants (mDyne/A),
 and normal coordinates:
                      1                      2                      3
                     B2                     A1                     A1
 Frequencies --    825.6675              1106.8836              2176.7302
 Red. masses --      1.0129                 1.0676                 1.0093
 Frc consts  --      0.4069                 0.7707                 2.8175
 IR Inten    --    186.9190                29.7513               607.9264
  Atom  AN      X      Y      Z        X      Y      Z        X      Y      Z
     1  16     0.00   0.01   0.00    -0.00   0.00  -0.04     0.00   0.00   0.01
     2   1    -0.00  -0.20   0.68     0.00   0.11   0.70     0.00   0.70  -0.11
     3   1    -0.00  -0.20  -0.68     0.00  -0.11   0.70    -0.00  -0.70  -0.11

 -------------------
 - Thermochemistry -
 -------------------
 Temperature   298.150 Kelvin.  Pressure   1.00000 Atm.
 Atom     1 has atomic number 16 and mass  31.97207
 Atom     2 has atomic number  1 and mass   1.00783
 Atom     3 has atomic number  1 and mass   1.00783
 Molecular mass:    33.98772 amu.
 Principal axes and moments of inertia in atomic units:
                           1         2         3
     Eigenvalues --     1.70223  17.66782  19.37006
           X            0.00000   0.00000   1.00000
           Y            0.00000   1.00000   0.00000
           Z            1.00000   0.00000   0.00000
 This molecule is an asymmetric top.
 Rotational symmetry number  2.
 Rotational temperatures (Kelvin)     50.88247     4.90235     4.47153
 Rotational constants (GHZ):        1060.21984   102.14847    93.17170
 Zero-point vibrational energy      24579.0 (Joules/Mol)
                                    5.87451 (Kcal/Mol)
 Vibrational temperatures:   1187.95  1592.56  3131.83
          (Kelvin)
 
 Zero-point correction=                           0.009362 (Hartree/Particle)
 Thermal correction to Energy=                    0.012290
 Thermal correction to Enthalpy=                  0.013234
 Thermal correction to Gibbs Free Energy=        -0.011323
 Sum of electronic and zero-point Energies=           -398.218816
 Sum of electronic and thermal Energies=              -398.215888
 Sum of electronic and thermal Enthalpies=            -398.214944
 Sum of electronic and thermal Free Energies=         -398.239501
 
                     E (Thermal)             CV                S
                      KCal/Mol        Cal/Mol-Kelvin    Cal/Mol-Kelvin
 Total                    7.712              6.851             51.685
 Electronic               0.000              0.000              2.183
 Translational            0.889              2.981             36.501
 Rotational               0.889              2.981             12.752
 Vibrational              5.935              0.890              0.249
                       Q            Log10(Q)             Ln(Q)
 Total Bot       0.161530D+06          5.208252         11.992444
 Total V=0       0.326809D+10          9.514295         21.907473
 Vib (Bot)       0.506069D-04         -4.295790         -9.891423
 Vib (V=0)       0.102389D+01          0.010252          0.023607
 Electronic      0.300000D+01          0.477121          1.098612
 Translational   0.778822D+07          6.891438         15.868123
 Rotational      0.136610D+03          2.135483          4.917131
 
                                                              b3lyp opt
                                                             IR Spectrum
 
     2                                                              1                                                                
     1                                                              1               8                                                
     7                                                              0               2                                                
     7                                                              7               6                                                
 
     X                                                              X               X                                                
     X                                                                              X                                                
     X                                                                              X                                                
     X                                                                              X                                                
     X                                                                              X                                                
     X                                                                              X                                                
     X                                                                                                                               
     X                                                                                                                               
     X                                                                                                                               
     X                                                                                                                               
     X                                                                                                                               
     X                                                                                                                               
     X                                                                                                                               
     X                                                                                                                               
     X                                                                                                                               
     X                                                                                                                               
     X                                                                                                                               
     X                                                                                                                               
     X                                                                                                                               
     X                                                                                                                               
 
 ***** Axes restored to original set *****
 -------------------------------------------------------------------
 Center     Atomic                   Forces (Hartrees/Bohr)
 Number     Number              X              Y              Z
 -------------------------------------------------------------------
      1       16          -0.000003872    0.000001364   -0.000000000
      2        1           0.000003401    0.000003475   -0.000000000
      3        1           0.000000471   -0.000004839    0.000000000
 -------------------------------------------------------------------
 Cartesian Forces:  Max     0.000004839 RMS     0.000002669
 Z-matrix is all fixed cartesians, so copy forces.
 Force constants in Cartesian coordinates: 
                1             2             3             4             5 
      1  0.842312D-01
      2 -0.281945D-01  0.141565D-01
      3  0.000000D+00  0.000000D+00 -0.138293D-03
      4 -0.507025D-01  0.994003D-02  0.000000D+00  0.499794D-01
      5 -0.308738D-02  0.150861D-02  0.000000D+00  0.277113D-01  0.751577D-01
      6  0.000000D+00  0.000000D+00  0.691462D-04  0.000000D+00  0.000000D+00
      7 -0.335287D-01  0.182545D-01  0.000000D+00  0.723122D-03 -0.246239D-01
      8  0.312819D-01 -0.156652D-01  0.000000D+00 -0.376513D-01 -0.766663D-01
      9  0.000000D+00  0.000000D+00  0.691462D-04  0.000000D+00  0.000000D+00
                6             7             8             9 
      6 -0.665344D-04
      7  0.000000D+00  0.328056D-01
      8  0.000000D+00  0.636942D-02  0.923315D-01
      9 -0.261185D-05  0.000000D+00  0.000000D+00 -0.665344D-04
 Leave Link  716 at Wed Aug  3 22:48:58 2016, MaxMem=    33554432 cpu:         0.1
 (Enter /home/proyectos/fulerenos/M3C-v2.0/M3C-deps_CCC/g09-AM64L-G09RevC.01/l103.exe)

 GradGradGradGradGradGradGradGradGradGradGradGradGradGradGradGradGradGrad
 Berny optimization.
 Search for a local minimum.
 Step number   1 out of a maximum of    2
 All quantities printed in internal units (Hartrees-Bohrs-Radians)
 Second derivative matrix not updated -- analytic derivatives used.
 The second derivative matrix:
                          X1        Y1        Z1        X2        Y2
           X1           0.08423
           Y1          -0.02819   0.01416
           Z1          -0.00000   0.00000  -0.00014
           X2          -0.05070   0.00994   0.00000   0.04998
           Y2          -0.00309   0.00151   0.00000   0.02771   0.07516
           Z2           0.00000  -0.00000   0.00007  -0.00000  -0.00000
           X3          -0.03353   0.01825   0.00000   0.00072  -0.02462
           Y3           0.03128  -0.01567  -0.00000  -0.03765  -0.07667
           Z3          -0.00000   0.00000   0.00007   0.00000   0.00000
                          Z2        X3        Y3        Z3
           Z2          -0.00007
           X3          -0.00000   0.03281
           Y3           0.00000   0.00637   0.09233
           Z3          -0.00000  -0.00000  -0.00000  -0.00007
 ITU=  0
     Eigenvalues ---    0.02778   0.08530   0.18626
 Angle between quadratic step and forces=  26.46 degrees.
 ClnCor:  largest displacement from symmetrization is 1.94D-14 for atom     3.
 Linear search not attempted -- first point.
 ClnCor:  largest displacement from symmetrization is 9.16D-16 for atom     3.
 B after Tr=    -0.000011    0.000004   -0.000000
         Rot=    1.000000   -0.000000   -0.000000    0.000000 Ang=   0.00 deg.
 Variable       Old X    -DE/DX   Delta X   Delta X   Delta X     New X
                                 (Linear)    (Quad)   (Total)
    X1        0.55565  -0.00000   0.00000  -0.00001  -0.00002   0.55562
    Y1       -0.20388   0.00000   0.00000   0.00000   0.00001  -0.20387
    Z1       -0.00000  -0.00000   0.00000   0.00000  -0.00000  -0.00000
    X2       -2.62878   0.00000   0.00000   0.00003   0.00002  -2.62877
    Y2       -0.05608   0.00000   0.00000   0.00001   0.00002  -0.05607
    Z2        0.00000  -0.00000   0.00000  -0.00000   0.00000   0.00000
    X3       -2.01793   0.00000   0.00000   0.00001   0.00000  -2.01793
    Y3        1.67738  -0.00000   0.00000  -0.00003  -0.00002   1.67736
    Z3       -0.00000   0.00000   0.00000   0.00000   0.00000   0.00000
         Item               Value     Threshold  Converged?
 Maximum Force            0.000005     0.000450     YES
 RMS     Force            0.000003     0.000300     YES
 Maximum Displacement     0.000024     0.001800     YES
 RMS     Displacement     0.000014     0.001200     YES
 Predicted change in Energy=-1.631776D-10
 Optimization completed.
    -- Stationary point found.
 GradGradGradGradGradGradGradGradGradGradGradGradGradGradGradGradGradGrad

 Leave Link  103 at Wed Aug  3 22:48:58 2016, MaxMem=    33554432 cpu:         0.1
 (Enter /home/proyectos/fulerenos/M3C-v2.0/M3C-deps_CCC/g09-AM64L-G09RevC.01/l9999.exe)
 1\1\GINC-DEPAZ29\Freq\UB3LYP\6-311++G(3df,2p)\H2S1(2+,3)\NAGUIRRE\03-A
 ug-2016\0\\#p b3lyp/6-311++G(3df,2p) freq\\b3lyp opt\\2,3\S,0.294035,-
 0.107887,0.\H,-1.39109248,-0.029678628,0.\H,-1.0678445195,0.887630628,
 0.\\Version=EM64L-G09RevE.01\State=3-A2\HF=-398.228178\S2=2.005908\S2-
 1=0.\S2A=2.00001\RMSD=2.496e-09\RMSF=2.669e-06\ZeroPoint=0.0093616\The
 rmal=0.01229\Dipole=-1.2573718,0.4430816,0.\DipoleDeriv=1.4435509,-0.0
 823947,0.,-0.0823947,1.2387669,0.,0.,0.,1.3410036,0.5139572,0.1761159,
 0.,0.4921689,0.1448839,0.,0.,0.,0.3294982,0.0424919,-0.0937212,0.,-0.4
 097742,0.6163492,0.,0.,0.,0.3294982\Polar=18.1806068,-2.3466909,12.348
 1387,0.,0.,9.9947485\PG=C02V [C2(S1),SGV(H2)]\NImag=0\\0.08423122,-0.0
 2819451,0.01415655,0.,0.,-0.00013829,-0.05070250,0.00994003,0.,0.04997
 938,-0.00308738,0.00150861,0.,0.02771129,0.07515772,0.,0.,0.00006915,0
 .,0.,-0.00006653,-0.03352872,0.01825448,0.,0.00072312,-0.02462390,0.,0
 .03280560,0.03128190,-0.01566516,0.,-0.03765132,-0.07666634,0.,0.00636
 942,0.09233150,0.,0.,0.00006915,0.,0.,-0.00000261,0.,0.,-0.00006653\\0
 .00000387,-0.00000136,0.,-0.00000340,-0.00000347,0.,-0.00000047,0.0000
 0484,0.\\\@


 WHAT, THEN, IS TIME?  IF NO ONE ASKS ME, I KNOW WHAT IT IS.
 IF I WISH TO EXPLAIN WHAT IT IS TO HIM WHO ASKS ME, I DO NOT KNOW.
                                   -- ST. AUGUSTINE (FIFTH CENTURY)
 Job cpu time:       0 days  0 hours  0 minutes 36.9 seconds.
 File lengths (MBytes):  RWF=      6 Int=      0 D2E=      0 Chk=      1 Scr=      1
 Normal termination of Gaussian 09 at Wed Aug  3 22:48:58 2016.
