 Entering Gaussian System, Link 0=/home/proyectos/fulerenos/M3C-v2.0/M3C-deps_CCC/g09-AM64L-G09RevC.01/g09
 Initial command:
 /home/proyectos/fulerenos/M3C-v2.0/M3C-deps_CCC/g09-AM64L-G09RevC.01/l1.exe "/scratch/naguirre/gaussian/Gau-5993.inp" -scrdir="/scratch/naguirre/gaussian/"
 Entering Link 1 = /home/proyectos/fulerenos/M3C-v2.0/M3C-deps_CCC/g09-AM64L-G09RevC.01/l1.exe PID=      6001.
  
 Copyright (c) 1988,1990,1992,1993,1995,1998,2003,2009,2015,
            Gaussian, Inc.  All Rights Reserved.
  
 This is part of the Gaussian(R) 09 program.  It is based on
 the Gaussian(R) 03 system (copyright 2003, Gaussian, Inc.),
 the Gaussian(R) 98 system (copyright 1998, Gaussian, Inc.),
 the Gaussian(R) 94 system (copyright 1995, Gaussian, Inc.),
 the Gaussian 92(TM) system (copyright 1992, Gaussian, Inc.),
 the Gaussian 90(TM) system (copyright 1990, Gaussian, Inc.),
 the Gaussian 88(TM) system (copyright 1988, Gaussian, Inc.),
 the Gaussian 86(TM) system (copyright 1986, Carnegie Mellon
 University), and the Gaussian 82(TM) system (copyright 1983,
 Carnegie Mellon University). Gaussian is a federally registered
 trademark of Gaussian, Inc.
  
 This software contains proprietary and confidential information,
 including trade secrets, belonging to Gaussian, Inc.
  
 This software is provided under written license and may be
 used, copied, transmitted, or stored only in accord with that
 written license.
  
 The following legend is applicable only to US Government
 contracts under FAR:
  
                    RESTRICTED RIGHTS LEGEND
  
 Use, reproduction and disclosure by the US Government is
 subject to restrictions as set forth in subparagraphs (a)
 and (c) of the Commercial Computer Software - Restricted
 Rights clause in FAR 52.227-19.
  
 Gaussian, Inc.
 340 Quinnipiac St., Bldg. 40, Wallingford CT 06492
  
  
 ---------------------------------------------------------------
 Warning -- This program may not be used in any manner that
 competes with the business of Gaussian, Inc. or will provide
 assistance to any competitor of Gaussian, Inc.  The licensee
 of this program is prohibited from giving any competitor of
 Gaussian, Inc. access to this program.  By using this program,
 the user acknowledges that Gaussian, Inc. is engaged in the
 business of creating and licensing software in the field of
 computational chemistry and represents and warrants to the
 licensee that it is not a competitor of Gaussian, Inc. and that
 it will not use this program in any manner prohibited above.
 ---------------------------------------------------------------
  

 Cite this work as:
 Gaussian 09, Revision E.01,
 M. J. Frisch, G. W. Trucks, H. B. Schlegel, G. E. Scuseria, 
 M. A. Robb, J. R. Cheeseman, G. Scalmani, V. Barone, B. Mennucci, 
 G. A. Petersson, H. Nakatsuji, M. Caricato, X. Li, H. P. Hratchian, 
 A. F. Izmaylov, J. Bloino, G. Zheng, J. L. Sonnenberg, M. Hada, 
 M. Ehara, K. Toyota, R. Fukuda, J. Hasegawa, M. Ishida, T. Nakajima, 
 Y. Honda, O. Kitao, H. Nakai, T. Vreven, J. A. Montgomery, Jr., 
 J. E. Peralta, F. Ogliaro, M. Bearpark, J. J. Heyd, E. Brothers, 
 K. N. Kudin, V. N. Staroverov, T. Keith, R. Kobayashi, J. Normand, 
 K. Raghavachari, A. Rendell, J. C. Burant, S. S. Iyengar, J. Tomasi, 
 M. Cossi, N. Rega, J. M. Millam, M. Klene, J. E. Knox, J. B. Cross, 
 V. Bakken, C. Adamo, J. Jaramillo, R. Gomperts, R. E. Stratmann, 
 O. Yazyev, A. J. Austin, R. Cammi, C. Pomelli, J. W. Ochterski, 
 R. L. Martin, K. Morokuma, V. G. Zakrzewski, G. A. Voth, 
 P. Salvador, J. J. Dannenberg, S. Dapprich, A. D. Daniels, 
 O. Farkas, J. B. Foresman, J. V. Ortiz, J. Cioslowski, 
 and D. J. Fox, Gaussian, Inc., Wallingford CT, 2013.
 
 ******************************************
 Gaussian 09:  EM64L-G09RevE.01 30-Nov-2015
                 3-Aug-2016 
 ******************************************
 %NProcShared=4
 Will use up to    4 processors via shared memory.
 ------------------------------
 #p b3lyp/6-311++G(3df,2p) freq
 ------------------------------
 1/10=4,30=1,38=1/1,3;
 2/12=2,17=6,18=5,40=1/2;
 3/5=4,6=6,7=1216,11=2,16=1,25=1,30=1,71=2,74=-5,140=1/1,2,3;
 4//1;
 5/5=2,38=5,98=1/2;
 8/6=4,10=90,11=11/1;
 11/6=1,8=1,9=11,15=111,16=1/1,2,10;
 10/6=1/2;
 6/7=2,8=2,9=2,10=2,18=1,28=1/1;
 7/8=1,10=1,25=1/1,2,3,16;
 1/10=4,30=1/3;
 99//99;
 Leave Link    1 at Wed Aug  3 22:48:48 2016, MaxMem=           0 cpu:         0.3
 (Enter /home/proyectos/fulerenos/M3C-v2.0/M3C-deps_CCC/g09-AM64L-G09RevC.01/l101.exe)
 ---------
 b3lyp opt
 ---------
 Symbolic Z-matrix:
 Charge =  0 Multiplicity = 2
 S                    -0.43319   0.90276   0.91598 
 S                     1.80202  -0.85518  -0.14065 
 C                     0.9415   -0.13952   1.04257 
 C                    -0.77025   1.07823  -0.71411 
 H                     1.1792   -0.2681    2.09566 
 H                    -1.60759   1.70388  -0.97505 
 H                    -0.16444   0.57899  -1.45529 
 
 NAtoms=      7 NQM=        7 NQMF=       0 NMMI=      0 NMMIF=      0
                NMic=       0 NMicF=      0.
                    Isotopes and Nuclear Properties:
 (Nuclear quadrupole moments (NQMom) in fm**2, nuclear magnetic moments (NMagM)
  in nuclear magnetons)

  Atom         1           2           3           4           5           6           7
 IAtWgt=          32          32          12          12           1           1           1
 AtmWgt=  31.9720718  31.9720718  12.0000000  12.0000000   1.0078250   1.0078250   1.0078250
 NucSpn=           0           0           0           0           1           1           1
 AtZEff=   0.0000000   0.0000000   0.0000000   0.0000000   0.0000000   0.0000000   0.0000000
 NQMom=    0.0000000   0.0000000   0.0000000   0.0000000   0.0000000   0.0000000   0.0000000
 NMagM=    0.0000000   0.0000000   0.0000000   0.0000000   2.7928460   2.7928460   2.7928460
 AtZNuc=  16.0000000  16.0000000   6.0000000   6.0000000   1.0000000   1.0000000   1.0000000
 Leave Link  101 at Wed Aug  3 22:48:48 2016, MaxMem=    33554432 cpu:         0.2
 (Enter /home/proyectos/fulerenos/M3C-v2.0/M3C-deps_CCC/g09-AM64L-G09RevC.01/l103.exe)

 GradGradGradGradGradGradGradGradGradGradGradGradGradGradGradGradGradGrad
 Berny optimization.
 Initialization pass.
 Trust Radius=3.00D-01 FncErr=1.00D-07 GrdErr=1.00D-07
 Number of steps in this run=      2 maximum allowed number of steps=      2.
 GradGradGradGradGradGradGradGradGradGradGradGradGradGradGradGradGradGrad

 Leave Link  103 at Wed Aug  3 22:48:48 2016, MaxMem=    33554432 cpu:         0.1
 (Enter /home/proyectos/fulerenos/M3C-v2.0/M3C-deps_CCC/g09-AM64L-G09RevC.01/l202.exe)
                          Input orientation:                          
 ---------------------------------------------------------------------
 Center     Atomic      Atomic             Coordinates (Angstroms)
 Number     Number       Type             X           Y           Z
 ---------------------------------------------------------------------
      1         16           0       -0.433191    0.902755    0.915979
      2         16           0        1.802016   -0.855176   -0.140650
      3          6           0        0.941501   -0.139519    1.042568
      4          6           0       -0.770249    1.078225   -0.714108
      5          1           0        1.179204   -0.268097    2.095663
      6          1           0       -1.607593    1.703881   -0.975050
      7          1           0       -0.164438    0.578993   -1.455295
 ---------------------------------------------------------------------
                    Distance matrix (angstroms):
                    1          2          3          4          5
     1  S    0.000000
     2  S    3.033634   0.000000
     3  C    1.729780   1.628698   0.000000
     4  C    1.673793   3.268554   2.738412   0.000000
     5  H    2.315679   2.394505   1.087219   3.675291   0.000000
     6  H    2.365801   4.344011   3.737216   1.077349   4.591755
     7  H    2.408317   2.766238   2.824655   1.079629   3.890017
                    6          7
     6  H    0.000000
     7  H    1.891747   0.000000
 Stoichiometry    C2H3S2(2)
 Framework group  CS[SG(C2H3S2)]
 Deg. of freedom    11
 Full point group                 CS      NOp   2
 Largest Abelian subgroup         CS      NOp   2
 Largest concise Abelian subgroup C1      NOp   1
                         Standard orientation:                         
 ---------------------------------------------------------------------
 Center     Atomic      Atomic             Coordinates (Angstroms)
 Number     Number       Type             X           Y           Z
 ---------------------------------------------------------------------
      1         16           0       -1.298685   -0.208767    0.000000
      2         16           0        1.606369    0.665074   -0.000000
      3          6           0       -0.000000    0.933841    0.000000
      4          6           0       -0.612136   -1.735277    0.000000
      5          1           0       -0.423533    1.935172    0.000000
      6          1           0       -1.287646   -2.574542    0.000000
      7          1           0        0.461063   -1.852931   -0.000000
 ---------------------------------------------------------------------
 Rotational constants (GHZ):     11.6992794      2.8754616      2.3081596
 Leave Link  202 at Wed Aug  3 22:48:48 2016, MaxMem=    33554432 cpu:         0.0
 (Enter /home/proyectos/fulerenos/M3C-v2.0/M3C-deps_CCC/g09-AM64L-G09RevC.01/l301.exe)
 Standard basis: 6-311++G(3df,2p) (5D, 7F)
 Ernie: Thresh=  0.10000D-02 Tol=  0.10000D-05 Strict=F.
 There are   160 symmetry adapted cartesian basis functions of A'  symmetry.
 There are    66 symmetry adapted cartesian basis functions of A"  symmetry.
 There are   140 symmetry adapted basis functions of A'  symmetry.
 There are    62 symmetry adapted basis functions of A"  symmetry.
   202 basis functions,   296 primitive gaussians,   226 cartesian basis functions
    24 alpha electrons       23 beta electrons
       nuclear repulsion energy       189.5388957260 Hartrees.
 IExCor=  402 DFT=T Ex+Corr=B3LYP ExCW=0 ScaHFX=  0.200000
 ScaDFX=  0.800000  0.720000  1.000000  0.810000 ScalE2=  1.000000  1.000000
 IRadAn=      0 IRanWt=     -1 IRanGd=            0 ICorTp=0 IEmpDi=  4
 NAtoms=    7 NActive=    7 NUniq=    7 SFac= 1.00D+00 NAtFMM=   60 NAOKFM=F Big=F
 Integral buffers will be    131072 words long.
 Raffenetti 2 integral format.
 Two-electron integral symmetry is turned on.
 Leave Link  301 at Wed Aug  3 22:48:48 2016, MaxMem=    33554432 cpu:         0.3
 (Enter /home/proyectos/fulerenos/M3C-v2.0/M3C-deps_CCC/g09-AM64L-G09RevC.01/l302.exe)
 NPDir=0 NMtPBC=     1 NCelOv=     1 NCel=       1 NClECP=     1 NCelD=      1
         NCelK=      1 NCelE2=     1 NClLst=     1 CellRange=     0.0.
 One-electron integrals computed using PRISM.
 NBasis=   202 RedAO= T EigKep=  1.37D-04  NBF=   140    62
 NBsUse=   202 1.00D-06 EigRej= -1.00D+00 NBFU=   140    62
 Precomputing XC quadrature grid using
 IXCGrd= 4 IRadAn=           0 IRanWt=          -1 IRanGd=           0 AccXCQ= 0.00D+00.
 Generated NRdTot=       0 NPtTot=           0 NUsed=           0 NTot=          32
 NSgBfM=   226   226   226   226   226 MxSgAt=     7 MxSgA2=     7.
 Leave Link  302 at Wed Aug  3 22:48:48 2016, MaxMem=    33554432 cpu:         1.1
 (Enter /home/proyectos/fulerenos/M3C-v2.0/M3C-deps_CCC/g09-AM64L-G09RevC.01/l303.exe)
 DipDrv:  MaxL=1.
 Leave Link  303 at Wed Aug  3 22:48:49 2016, MaxMem=    33554432 cpu:         0.1
 (Enter /home/proyectos/fulerenos/M3C-v2.0/M3C-deps_CCC/g09-AM64L-G09RevC.01/l401.exe)
 ExpMin= 3.60D-02 ExpMax= 9.34D+04 ExpMxC= 3.17D+03 IAcc=3 IRadAn=         5 AccDes= 0.00D+00
 Harris functional with IExCor=  402 and IRadAn=       5 diagonalized for initial guess.
 HarFok:  IExCor=  402 AccDes= 0.00D+00 IRadAn=         5 IDoV= 1 UseB2=F ITyADJ=14
 ICtDFT=  3500011 ScaDFX=  1.000000  1.000000  1.000000  1.000000
 FoFCou: FMM=F IPFlag=           0 FMFlag=      100000 FMFlg1=           0
         NFxFlg=           0 DoJE=T BraDBF=F KetDBF=T FulRan=T
         wScrn=  0.000000 ICntrl=     500 IOpCl=  0 I1Cent=   200000004 NGrid=           0
         NMat0=    1 NMatS0=      1 NMatT0=    0 NMatD0=    1 NMtDS0=    0 NMtDT0=    0
 Petite list used in FoFCou.
 Harris En= -874.337648903275    
 JPrj=0 DoOrth=F DoCkMO=F.
 Initial guess orbital symmetries:
 Alpha Orbitals:
       Occupied  (A') (A') (A') (A') (A') (A') (A') (A') (A") (A')
                 (A') (A") (A') (A') (A') (A') (A') (A') (A') (A")
                 (A') (A") (A') (A")
       Virtual   (A") (A') (A') (A') (A') (A') (A') (A") (A') (A')
                 (A") (A') (A") (A') (A') (A') (A') (A') (A") (A')
                 (A') (A') (A") (A') (A') (A') (A") (A') (A") (A')
                 (A') (A') (A") (A") (A') (A') (A') (A") (A') (A')
                 (A") (A') (A") (A') (A") (A') (A') (A') (A') (A')
                 (A') (A') (A") (A') (A") (A') (A") (A') (A') (A')
                 (A') (A') (A") (A") (A') (A") (A') (A') (A") (A")
                 (A') (A") (A') (A') (A') (A') (A") (A') (A') (A')
                 (A') (A') (A') (A') (A") (A") (A") (A") (A') (A')
                 (A") (A') (A") (A") (A') (A") (A') (A") (A') (A')
                 (A') (A') (A') (A') (A") (A') (A") (A') (A") (A')
                 (A') (A') (A') (A') (A') (A') (A") (A") (A') (A")
                 (A") (A') (A") (A') (A') (A") (A') (A") (A') (A')
                 (A") (A') (A') (A') (A') (A') (A') (A') (A") (A")
                 (A") (A') (A') (A") (A') (A") (A") (A') (A") (A')
                 (A') (A') (A') (A') (A') (A') (A") (A") (A") (A')
                 (A") (A') (A') (A') (A') (A') (A') (A') (A") (A")
                 (A') (A') (A') (A') (A') (A') (A') (A')
 Beta  Orbitals:
       Occupied  (A') (A') (A') (A') (A') (A') (A') (A') (A") (A')
                 (A') (A") (A') (A') (A') (A') (A') (A') (A') (A")
                 (A') (A") (A')
       Virtual   (A") (A") (A') (A') (A') (A') (A') (A') (A") (A')
                 (A') (A") (A') (A") (A') (A') (A') (A') (A') (A")
                 (A') (A') (A') (A") (A') (A') (A') (A") (A') (A")
                 (A') (A') (A') (A") (A") (A') (A') (A') (A") (A')
                 (A') (A") (A') (A") (A') (A") (A') (A') (A') (A')
                 (A') (A') (A') (A") (A') (A") (A') (A") (A') (A')
                 (A') (A') (A') (A") (A") (A') (A") (A') (A') (A")
                 (A") (A') (A") (A') (A') (A') (A') (A") (A') (A')
                 (A') (A') (A') (A') (A') (A") (A") (A") (A") (A')
                 (A') (A") (A') (A") (A") (A') (A") (A') (A") (A')
                 (A') (A') (A') (A') (A') (A") (A') (A") (A') (A")
                 (A') (A') (A') (A') (A') (A') (A') (A") (A") (A')
                 (A") (A") (A') (A") (A') (A') (A") (A') (A") (A')
                 (A') (A") (A') (A') (A') (A') (A') (A') (A') (A")
                 (A") (A") (A') (A') (A") (A') (A") (A") (A') (A")
                 (A') (A') (A') (A') (A') (A') (A') (A") (A") (A")
                 (A') (A") (A') (A') (A') (A') (A') (A') (A') (A")
                 (A") (A') (A') (A') (A') (A') (A') (A') (A')
 The electronic state of the initial guess is 2-A".
 Initial guess <Sx>= 0.0000 <Sy>= 0.0000 <Sz>= 0.5000 <S**2>= 0.7500 S= 0.5000
 Leave Link  401 at Wed Aug  3 22:48:50 2016, MaxMem=    33554432 cpu:         4.1
 (Enter /home/proyectos/fulerenos/M3C-v2.0/M3C-deps_CCC/g09-AM64L-G09RevC.01/l502.exe)
 UHF open shell SCF:
 Using DIIS extrapolation, IDIIS=  1040.
 Integral symmetry usage will be decided dynamically.
 IVT=      174846 IEndB=      174846 NGot=    33554432 MDV=    33447529
 LenX=    33447529 LenY=    33396012
 Requested convergence on RMS density matrix=1.00D-08 within 128 cycles.
 Requested convergence on MAX density matrix=1.00D-06.
 Requested convergence on             energy=1.00D-06.
 No special actions if energy rises.
 Fock matrices will be formed incrementally for  20 cycles.

 Cycle   1  Pass 1  IDiag  1:
 FoFJK:  IHMeth= 1 ICntrl=       0 DoSepK=F KAlg= 0 I1Cent=   0 FoldK=F
 IRaf= 960000000 NMat=   1 IRICut=       1 DoRegI=T DoRafI=F ISym2E= 1.
 FoFCou: FMM=F IPFlag=           0 FMFlag=      100000 FMFlg1=           0
         NFxFlg=           0 DoJE=F BraDBF=F KetDBF=F FulRan=T
         wScrn=  0.000000 ICntrl=       0 IOpCl=  1 I1Cent=           0 NGrid=           0
         NMat0=    1 NMatS0=      1 NMatT0=    0 NMatD0=    1 NMtDS0=    0 NMtDT0=    0
 Petite list used in FoFCou.
 E= -874.257138394250    
 DIIS: error= 2.71D-02 at cycle   1 NSaved=   1.
 NSaved= 1 IEnMin= 1 EnMin= -874.257138394250     IErMin= 1 ErrMin= 2.71D-02
 ErrMax= 2.71D-02  0.00D+00 EMaxC= 1.00D-01 BMatC= 7.58D-01 BMatP= 7.58D-01
 IDIUse=3 WtCom= 7.29D-01 WtEn= 2.71D-01
 Coeff-Com:  0.100D+01
 Coeff-En:   0.100D+01
 Coeff:      0.100D+01
 Gap=     0.108 Goal=   None    Shift=    0.000
 Gap=     0.104 Goal=   None    Shift=    0.000
 GapD=    0.104 DampG=1.000 DampE=0.500 DampFc=0.5000 IDamp=-1.
 Damping current iteration by 5.00D-01
 RMSDP=3.43D-03 MaxDP=1.79D-01              OVMax= 4.16D-01

 Cycle   2  Pass 1  IDiag  1:
 RMSU=  1.71D-03    CP:  9.92D-01
 E= -874.298432368670     Delta-E=       -0.041293974421 Rises=F Damp=T
 DIIS: error= 1.01D-02 at cycle   2 NSaved=   2.
 NSaved= 2 IEnMin= 2 EnMin= -874.298432368670     IErMin= 2 ErrMin= 1.01D-02
 ErrMax= 1.01D-02  0.00D+00 EMaxC= 1.00D-01 BMatC= 1.04D-01 BMatP= 7.58D-01
 IDIUse=3 WtCom= 8.99D-01 WtEn= 1.01D-01
 Coeff-Com:  0.199D+00 0.801D+00
 Coeff-En:   0.379D+00 0.621D+00
 Coeff:      0.217D+00 0.783D+00
 Gap=     0.115 Goal=   None    Shift=    0.000
 Gap=     0.102 Goal=   None    Shift=    0.000
 RMSDP=1.19D-03 MaxDP=4.73D-02 DE=-4.13D-02 OVMax= 2.83D-01

 Cycle   3  Pass 1  IDiag  1:
 RMSU=  1.06D-03    CP:  9.95D-01  6.96D-01
 E= -874.414188222305     Delta-E=       -0.115755853635 Rises=F Damp=F
 DIIS: error= 1.02D-02 at cycle   3 NSaved=   3.
 NSaved= 3 IEnMin= 3 EnMin= -874.414188222305     IErMin= 2 ErrMin= 1.01D-02
 ErrMax= 1.02D-02  0.00D+00 EMaxC= 1.00D-01 BMatC= 2.32D-02 BMatP= 1.04D-01
 IDIUse=3 WtCom= 8.98D-01 WtEn= 1.02D-01
 Coeff-Com:  0.284D-01 0.280D+00 0.692D+00
 Coeff-En:   0.000D+00 0.000D+00 0.100D+01
 Coeff:      0.255D-01 0.251D+00 0.723D+00
 Gap=     0.116 Goal=   None    Shift=    0.000
 Gap=     0.128 Goal=   None    Shift=    0.000
 RMSDP=8.50D-04 MaxDP=2.88D-02 DE=-1.16D-01 OVMax= 1.24D-01

 Cycle   4  Pass 1  IDiag  1:
 RMSU=  6.64D-04    CP:  9.93D-01  7.15D-01  5.04D-01
 E= -874.413740640037     Delta-E=        0.000447582268 Rises=F Damp=F
 DIIS: error= 7.80D-03 at cycle   4 NSaved=   4.
 NSaved= 4 IEnMin= 3 EnMin= -874.414188222305     IErMin= 4 ErrMin= 7.80D-03
 ErrMax= 7.80D-03  0.00D+00 EMaxC= 1.00D-01 BMatC= 2.81D-02 BMatP= 2.32D-02
 IDIUse=3 WtCom= 1.02D-01 WtEn= 8.98D-01
 Coeff-Com: -0.269D-02 0.723D-01 0.517D+00 0.413D+00
 Coeff-En:   0.000D+00 0.000D+00 0.511D+00 0.489D+00
 Coeff:     -0.274D-03 0.736D-02 0.512D+00 0.481D+00
 Gap=     0.127 Goal=   None    Shift=    0.000
 Gap=     0.112 Goal=   None    Shift=    0.000
 RMSDP=5.08D-04 MaxDP=2.16D-02 DE= 4.48D-04 OVMax= 1.14D-01

 Cycle   5  Pass 1  IDiag  1:
 RMSU=  2.85D-04    CP:  9.92D-01  7.55D-01  7.74D-01  5.48D-01
 E= -874.422521607481     Delta-E=       -0.008780967444 Rises=F Damp=F
 DIIS: error= 2.58D-03 at cycle   5 NSaved=   5.
 NSaved= 5 IEnMin= 5 EnMin= -874.422521607481     IErMin= 5 ErrMin= 2.58D-03
 ErrMax= 2.58D-03  0.00D+00 EMaxC= 1.00D-01 BMatC= 3.93D-03 BMatP= 2.32D-02
 IDIUse=3 WtCom= 9.74D-01 WtEn= 2.58D-02
 Coeff-Com:  0.114D-01-0.312D-01 0.191D+00 0.274D+00 0.555D+00
 Coeff-En:   0.000D+00 0.000D+00 0.000D+00 0.000D+00 0.100D+01
 Coeff:      0.111D-01-0.304D-01 0.186D+00 0.267D+00 0.566D+00
 Gap=     0.129 Goal=   None    Shift=    0.000
 Gap=     0.112 Goal=   None    Shift=    0.000
 RMSDP=1.29D-04 MaxDP=5.59D-03 DE=-8.78D-03 OVMax= 1.34D-02

 Cycle   6  Pass 1  IDiag  1:
 RMSU=  8.77D-05    CP:  9.93D-01  7.24D-01  8.00D-01  6.44D-01  8.88D-01
 E= -874.423537589272     Delta-E=       -0.001015981790 Rises=F Damp=F
 DIIS: error= 1.11D-03 at cycle   6 NSaved=   6.
 NSaved= 6 IEnMin= 6 EnMin= -874.423537589272     IErMin= 6 ErrMin= 1.11D-03
 ErrMax= 1.11D-03  0.00D+00 EMaxC= 1.00D-01 BMatC= 3.39D-04 BMatP= 3.93D-03
 IDIUse=3 WtCom= 9.89D-01 WtEn= 1.11D-02
 Coeff-Com:  0.735D-02-0.311D-01 0.234D-01 0.838D-01 0.276D+00 0.641D+00
 Coeff-En:   0.000D+00 0.000D+00 0.000D+00 0.000D+00 0.000D+00 0.100D+01
 Coeff:      0.727D-02-0.308D-01 0.232D-01 0.829D-01 0.273D+00 0.645D+00
 Gap=     0.132 Goal=   None    Shift=    0.000
 Gap=     0.114 Goal=   None    Shift=    0.000
 RMSDP=8.03D-05 MaxDP=4.20D-03 DE=-1.02D-03 OVMax= 1.43D-02

 Cycle   7  Pass 1  IDiag  1:
 RMSU=  5.90D-05    CP:  9.92D-01  7.17D-01  8.06D-01  7.01D-01  1.02D+00
                    CP:  1.01D+00
 E= -874.423675372891     Delta-E=       -0.000137783619 Rises=F Damp=F
 DIIS: error= 7.44D-04 at cycle   7 NSaved=   7.
 NSaved= 7 IEnMin= 7 EnMin= -874.423675372891     IErMin= 7 ErrMin= 7.44D-04
 ErrMax= 7.44D-04  0.00D+00 EMaxC= 1.00D-01 BMatC= 2.22D-04 BMatP= 3.39D-04
 IDIUse=3 WtCom= 9.93D-01 WtEn= 7.44D-03
 Coeff-Com:  0.103D-02-0.575D-02-0.829D-01-0.778D-01-0.130D+00 0.524D+00
 Coeff-Com:  0.772D+00
 Coeff-En:   0.000D+00 0.000D+00 0.000D+00 0.000D+00 0.000D+00 0.000D+00
 Coeff-En:   0.100D+01
 Coeff:      0.102D-02-0.571D-02-0.823D-01-0.772D-01-0.129D+00 0.520D+00
 Coeff:      0.774D+00
 Gap=     0.133 Goal=   None    Shift=    0.000
 Gap=     0.114 Goal=   None    Shift=    0.000
 RMSDP=6.87D-05 MaxDP=3.80D-03 DE=-1.38D-04 OVMax= 1.37D-02

 Cycle   8  Pass 1  IDiag  1:
 RMSU=  2.38D-05    CP:  9.92D-01  7.17D-01  8.35D-01  7.13D-01  1.15D+00
                    CP:  1.48D+00  8.18D-01
 E= -874.423780345104     Delta-E=       -0.000104972213 Rises=F Damp=F
 DIIS: error= 2.83D-04 at cycle   8 NSaved=   8.
 NSaved= 8 IEnMin= 8 EnMin= -874.423780345104     IErMin= 8 ErrMin= 2.83D-04
 ErrMax= 2.83D-04  0.00D+00 EMaxC= 1.00D-01 BMatC= 2.30D-05 BMatP= 2.22D-04
 IDIUse=3 WtCom= 9.97D-01 WtEn= 2.83D-03
 Coeff-Com: -0.114D-02 0.317D-02-0.305D-01-0.318D-01-0.950D-01 0.739D-01
 Coeff-Com:  0.357D+00 0.724D+00
 Coeff-En:   0.000D+00 0.000D+00 0.000D+00 0.000D+00 0.000D+00 0.000D+00
 Coeff-En:   0.000D+00 0.100D+01
 Coeff:     -0.113D-02 0.316D-02-0.304D-01-0.317D-01-0.947D-01 0.737D-01
 Coeff:      0.356D+00 0.725D+00
 Gap=     0.133 Goal=   None    Shift=    0.000
 Gap=     0.115 Goal=   None    Shift=    0.000
 RMSDP=1.88D-05 MaxDP=1.09D-03 DE=-1.05D-04 OVMax= 3.80D-03

 Cycle   9  Pass 1  IDiag  1:
 RMSU=  7.60D-06    CP:  9.92D-01  7.17D-01  8.32D-01  7.27D-01  1.17D+00
                    CP:  1.55D+00  1.00D+00  8.75D-01
 E= -874.423790439828     Delta-E=       -0.000010094725 Rises=F Damp=F
 DIIS: error= 4.06D-05 at cycle   9 NSaved=   9.
 NSaved= 9 IEnMin= 9 EnMin= -874.423790439828     IErMin= 9 ErrMin= 4.06D-05
 ErrMax= 4.06D-05  0.00D+00 EMaxC= 1.00D-01 BMatC= 1.32D-06 BMatP= 2.30D-05
 IDIUse=1 WtCom= 1.00D+00 WtEn= 0.00D+00
 Coeff-Com: -0.487D-03 0.184D-02-0.446D-02-0.348D-02-0.201D-01-0.214D-01
 Coeff-Com:  0.485D-01 0.240D+00 0.760D+00
 Coeff:     -0.487D-03 0.184D-02-0.446D-02-0.348D-02-0.201D-01-0.214D-01
 Coeff:      0.485D-01 0.240D+00 0.760D+00
 Gap=     0.133 Goal=   None    Shift=    0.000
 Gap=     0.115 Goal=   None    Shift=    0.000
 RMSDP=4.50D-06 MaxDP=2.23D-04 DE=-1.01D-05 OVMax= 7.54D-04

 Cycle  10  Pass 1  IDiag  1:
 RMSU=  2.79D-06    CP:  9.92D-01  7.17D-01  8.33D-01  7.29D-01  1.17D+00
                    CP:  1.56D+00  1.03D+00  9.56D-01  9.80D-01
 E= -874.423791009546     Delta-E=       -0.000000569717 Rises=F Damp=F
 DIIS: error= 1.62D-05 at cycle  10 NSaved=  10.
 NSaved=10 IEnMin=10 EnMin= -874.423791009546     IErMin=10 ErrMin= 1.62D-05
 ErrMax= 1.62D-05  0.00D+00 EMaxC= 1.00D-01 BMatC= 1.26D-07 BMatP= 1.32D-06
 IDIUse=1 WtCom= 1.00D+00 WtEn= 0.00D+00
 Coeff-Com:  0.620D-04-0.165D-03 0.362D-02 0.426D-02 0.878D-02-0.122D-01
 Coeff-Com: -0.428D-01-0.363D-01 0.115D+00 0.960D+00
 Coeff:      0.620D-04-0.165D-03 0.362D-02 0.426D-02 0.878D-02-0.122D-01
 Coeff:     -0.428D-01-0.363D-01 0.115D+00 0.960D+00
 Gap=     0.133 Goal=   None    Shift=    0.000
 Gap=     0.115 Goal=   None    Shift=    0.000
 RMSDP=2.13D-06 MaxDP=1.45D-04 DE=-5.70D-07 OVMax= 3.81D-04

 Cycle  11  Pass 1  IDiag  1:
 RMSU=  9.32D-07    CP:  9.92D-01  7.17D-01  8.33D-01  7.29D-01  1.18D+00
                    CP:  1.57D+00  1.03D+00  9.85D-01  1.15D+00  1.34D+00
 E= -874.423791120347     Delta-E=       -0.000000110801 Rises=F Damp=F
 DIIS: error= 6.72D-06 at cycle  11 NSaved=  11.
 NSaved=11 IEnMin=11 EnMin= -874.423791120347     IErMin=11 ErrMin= 6.72D-06
 ErrMax= 6.72D-06  0.00D+00 EMaxC= 1.00D-01 BMatC= 2.61D-08 BMatP= 1.26D-07
 IDIUse=1 WtCom= 1.00D+00 WtEn= 0.00D+00
 Coeff-Com:  0.102D-03-0.277D-03 0.538D-03 0.312D-03 0.171D-02 0.273D-02
 Coeff-Com: -0.766D-02-0.253D-01-0.877D-01 0.371D-01 0.108D+01
 Coeff:      0.102D-03-0.277D-03 0.538D-03 0.312D-03 0.171D-02 0.273D-02
 Coeff:     -0.766D-02-0.253D-01-0.877D-01 0.371D-01 0.108D+01
 Gap=     0.133 Goal=   None    Shift=    0.000
 Gap=     0.115 Goal=   None    Shift=    0.000
 RMSDP=1.32D-06 MaxDP=1.09D-04 DE=-1.11D-07 OVMax= 2.28D-04

 Cycle  12  Pass 1  IDiag  1:
 RMSU=  4.55D-07    CP:  9.92D-01  7.17D-01  8.33D-01  7.29D-01  1.18D+00
                    CP:  1.57D+00  1.03D+00  1.00D+00  1.21D+00  1.64D+00
                    CP:  1.42D+00
 E= -874.423791154100     Delta-E=       -0.000000033753 Rises=F Damp=F
 DIIS: error= 3.85D-06 at cycle  12 NSaved=  12.
 NSaved=12 IEnMin=12 EnMin= -874.423791154100     IErMin=12 ErrMin= 3.85D-06
 ErrMax= 3.85D-06  0.00D+00 EMaxC= 1.00D-01 BMatC= 5.52D-09 BMatP= 2.61D-08
 IDIUse=1 WtCom= 1.00D+00 WtEn= 0.00D+00
 Coeff-Com:  0.182D-05 0.139D-05-0.520D-03-0.692D-03-0.177D-02 0.254D-02
 Coeff-Com:  0.763D-02 0.678D-02-0.319D-01-0.223D+00 0.211D+00 0.103D+01
 Coeff:      0.182D-05 0.139D-05-0.520D-03-0.692D-03-0.177D-02 0.254D-02
 Coeff:      0.763D-02 0.678D-02-0.319D-01-0.223D+00 0.211D+00 0.103D+01
 Gap=     0.133 Goal=   None    Shift=    0.000
 Gap=     0.115 Goal=   None    Shift=    0.000
 RMSDP=6.96D-07 MaxDP=6.07D-05 DE=-3.38D-08 OVMax= 1.44D-04

 Cycle  13  Pass 1  IDiag  1:
 RMSU=  1.77D-07    CP:  9.92D-01  7.17D-01  8.33D-01  7.29D-01  1.18D+00
                    CP:  1.57D+00  1.03D+00  1.01D+00  1.25D+00  1.77D+00
                    CP:  1.86D+00  1.31D+00
 E= -874.423791163411     Delta-E=       -0.000000009310 Rises=F Damp=F
 DIIS: error= 1.56D-06 at cycle  13 NSaved=  13.
 NSaved=13 IEnMin=13 EnMin= -874.423791163411     IErMin=13 ErrMin= 1.56D-06
 ErrMax= 1.56D-06  0.00D+00 EMaxC= 1.00D-01 BMatC= 1.14D-09 BMatP= 5.52D-09
 IDIUse=1 WtCom= 1.00D+00 WtEn= 0.00D+00
 Coeff-Com: -0.230D-04 0.617D-04-0.197D-03-0.134D-03-0.471D-03 0.604D-04
 Coeff-Com:  0.191D-02 0.699D-02 0.172D-01-0.163D-01-0.276D+00 0.992D-01
 Coeff-Com:  0.117D+01
 Coeff:     -0.230D-04 0.617D-04-0.197D-03-0.134D-03-0.471D-03 0.604D-04
 Coeff:      0.191D-02 0.699D-02 0.172D-01-0.163D-01-0.276D+00 0.992D-01
 Coeff:      0.117D+01
 Gap=     0.133 Goal=   None    Shift=    0.000
 Gap=     0.115 Goal=   None    Shift=    0.000
 RMSDP=3.86D-07 MaxDP=3.28D-05 DE=-9.31D-09 OVMax= 7.33D-05

 Cycle  14  Pass 1  IDiag  1:
 RMSU=  6.95D-08    CP:  9.92D-01  7.17D-01  8.33D-01  7.29D-01  1.18D+00
                    CP:  1.57D+00  1.03D+00  1.01D+00  1.26D+00  1.84D+00
                    CP:  2.06D+00  1.68D+00  1.48D+00
 E= -874.423791165406     Delta-E=       -0.000000001995 Rises=F Damp=F
 DIIS: error= 5.00D-07 at cycle  14 NSaved=  14.
 NSaved=14 IEnMin=14 EnMin= -874.423791165406     IErMin=14 ErrMin= 5.00D-07
 ErrMax= 5.00D-07  0.00D+00 EMaxC= 1.00D-01 BMatC= 1.10D-10 BMatP= 1.14D-09
 IDIUse=1 WtCom= 1.00D+00 WtEn= 0.00D+00
 Coeff-Com: -0.264D-05 0.658D-05 0.391D-04 0.758D-04 0.149D-03-0.368D-03
 Coeff-Com: -0.788D-03 0.522D-03 0.701D-02 0.268D-01-0.838D-01-0.901D-01
 Coeff-Com:  0.170D+00 0.971D+00
 Coeff:     -0.264D-05 0.658D-05 0.391D-04 0.758D-04 0.149D-03-0.368D-03
 Coeff:     -0.788D-03 0.522D-03 0.701D-02 0.268D-01-0.838D-01-0.901D-01
 Coeff:      0.170D+00 0.971D+00
 Gap=     0.133 Goal=   None    Shift=    0.000
 Gap=     0.115 Goal=   None    Shift=    0.000
 RMSDP=9.36D-08 MaxDP=7.64D-06 DE=-1.99D-09 OVMax= 1.83D-05

 Cycle  15  Pass 1  IDiag  1:
 RMSU=  2.56D-08    CP:  9.92D-01  7.17D-01  8.33D-01  7.29D-01  1.18D+00
                    CP:  1.57D+00  1.03D+00  1.01D+00  1.27D+00  1.85D+00
                    CP:  2.10D+00  1.77D+00  1.70D+00  1.20D+00
 E= -874.423791165542     Delta-E=       -0.000000000136 Rises=F Damp=F
 DIIS: error= 1.49D-07 at cycle  15 NSaved=  15.
 NSaved=15 IEnMin=15 EnMin= -874.423791165542     IErMin=15 ErrMin= 1.49D-07
 ErrMax= 1.49D-07  0.00D+00 EMaxC= 1.00D-01 BMatC= 1.53D-11 BMatP= 1.10D-10
 IDIUse=1 WtCom= 1.00D+00 WtEn= 0.00D+00
 Coeff-Com:  0.270D-05-0.626D-05 0.353D-04 0.317D-04 0.875D-04-0.131D-03
 Coeff-Com: -0.434D-03-0.606D-03-0.117D-03 0.792D-02 0.158D-01-0.373D-01
 Coeff-Com: -0.116D+00 0.225D+00 0.907D+00
 Coeff:      0.270D-05-0.626D-05 0.353D-04 0.317D-04 0.875D-04-0.131D-03
 Coeff:     -0.434D-03-0.606D-03-0.117D-03 0.792D-02 0.158D-01-0.373D-01
 Coeff:     -0.116D+00 0.225D+00 0.907D+00
 Gap=     0.133 Goal=   None    Shift=    0.000
 Gap=     0.115 Goal=   None    Shift=    0.000
 RMSDP=2.61D-08 MaxDP=2.04D-06 DE=-1.36D-10 OVMax= 5.08D-06

 Cycle  16  Pass 1  IDiag  1:
 RMSU=  8.02D-09    CP:  9.92D-01  7.17D-01  8.33D-01  7.29D-01  1.18D+00
                    CP:  1.57D+00  1.03D+00  1.01D+00  1.27D+00  1.86D+00
                    CP:  2.11D+00  1.79D+00  1.75D+00  1.36D+00  1.12D+00
 E= -874.423791165556     Delta-E=       -0.000000000015 Rises=F Damp=F
 DIIS: error= 4.68D-08 at cycle  16 NSaved=  16.
 NSaved=16 IEnMin=16 EnMin= -874.423791165556     IErMin=16 ErrMin= 4.68D-08
 ErrMax= 4.68D-08  0.00D+00 EMaxC= 1.00D-01 BMatC= 1.80D-12 BMatP= 1.53D-11
 IDIUse=1 WtCom= 1.00D+00 WtEn= 0.00D+00
 Coeff-Com:  0.441D-06-0.933D-06 0.195D-05-0.714D-05-0.213D-05 0.233D-04
 Coeff-Com:  0.163D-04-0.570D-04-0.620D-03-0.206D-02 0.984D-02 0.382D-02
 Coeff-Com: -0.220D-01-0.681D-01 0.617D-01 0.102D+01
 Coeff:      0.441D-06-0.933D-06 0.195D-05-0.714D-05-0.213D-05 0.233D-04
 Coeff:      0.163D-04-0.570D-04-0.620D-03-0.206D-02 0.984D-02 0.382D-02
 Coeff:     -0.220D-01-0.681D-01 0.617D-01 0.102D+01
 Gap=     0.133 Goal=   None    Shift=    0.000
 Gap=     0.115 Goal=   None    Shift=    0.000
 RMSDP=6.25D-09 MaxDP=2.46D-07 DE=-1.46D-11 OVMax= 5.51D-07

 SCF Done:  E(UB3LYP) =  -874.423791166     A.U. after   16 cycles
            NFock= 16  Conv=0.62D-08     -V/T= 2.0017
 <Sx>= 0.0000 <Sy>= 0.0000 <Sz>= 0.5000 <S**2>= 0.7675 S= 0.5087
 <L.S>= 0.000000000000E+00
 KE= 8.729244377079D+02 PE=-2.453905970600D+03 EE= 5.170188460007D+02
 Annihilation of the first spin contaminant:
 S**2 before annihilation     0.7675,   after     0.7501
 Leave Link  502 at Wed Aug  3 22:49:47 2016, MaxMem=    33554432 cpu:       229.3
 (Enter /home/proyectos/fulerenos/M3C-v2.0/M3C-deps_CCC/g09-AM64L-G09RevC.01/l801.exe)
 DoSCS=F DFT=T ScalE2(SS,OS)=  1.000000  1.000000
 Range of M.O.s used for correlation:     1   202
 NBasis=   202 NAE=    24 NBE=    23 NFC=     0 NFV=     0
 NROrb=    202 NOA=    24 NOB=    23 NVA=   178 NVB=   179

 **** Warning!!: The largest alpha MO coefficient is  0.40152568D+02


 **** Warning!!: The largest beta MO coefficient is  0.39423095D+02

 Leave Link  801 at Wed Aug  3 22:49:47 2016, MaxMem=    33554432 cpu:         0.1
 (Enter /home/proyectos/fulerenos/M3C-v2.0/M3C-deps_CCC/g09-AM64L-G09RevC.01/l1101.exe)
 Using compressed storage, NAtomX=     7.
 Will process      8 centers per pass.
 Leave Link 1101 at Wed Aug  3 22:49:48 2016, MaxMem=    33554432 cpu:         0.8
 (Enter /home/proyectos/fulerenos/M3C-v2.0/M3C-deps_CCC/g09-AM64L-G09RevC.01/l1102.exe)
 Symmetrizing basis deriv contribution to polar:
 IMax=3 JMax=2 DiffMx= 0.00D+00
 Leave Link 1102 at Wed Aug  3 22:49:48 2016, MaxMem=    33554432 cpu:         0.1
 (Enter /home/proyectos/fulerenos/M3C-v2.0/M3C-deps_CCC/g09-AM64L-G09RevC.01/l1110.exe)
 Forming Gx(P) for the SCF density, NAtomX=     7.
 Integral derivatives from FoFJK, PRISM(SPDF).
 Do as many integral derivatives as possible in FoFJK.
 G2DrvN: MDV=      33554272.
 G2DrvN: will do     8 centers at a time, making    1 passes.
 Calling FoFCou, ICntrl=  3107 FMM=F I1Cent=   0 AccDes= 0.00D+00.
 FoFJK:  IHMeth= 1 ICntrl=    3107 DoSepK=F KAlg= 0 I1Cent=   0 FoldK=F
 IRaf=         0 NMat=   1 IRICut=       1 DoRegI=T DoRafI=F ISym2E= 1.
 FoFCou: FMM=F IPFlag=           0 FMFlag=      100000 FMFlg1=           0
         NFxFlg=           0 DoJE=F BraDBF=F KetDBF=F FulRan=T
         wScrn=  0.000000 ICntrl=    3107 IOpCl=  1 I1Cent=           0 NGrid=           0
         NMat0=    1 NMatS0=      1 NMatT0=    0 NMatD0=    1 NMtDS0=    0 NMtDT0=    0
 Petite list used in FoFCou.
 End of G2Drv F.D. properties file   721 does not exist.
 End of G2Drv F.D. properties file   722 does not exist.
 End of G2Drv F.D. properties file   788 does not exist.
 Leave Link 1110 at Wed Aug  3 22:50:16 2016, MaxMem=    33554432 cpu:       113.6
 (Enter /home/proyectos/fulerenos/M3C-v2.0/M3C-deps_CCC/g09-AM64L-G09RevC.01/l1002.exe)
 Minotr:  UHF open shell wavefunction.
          IDoAtm=1111111
          Direct CPHF calculation.
          Differentiating once with respect to electric field.
                with respect to dipole field.
          Differentiating once with respect to nuclear coordinates.
          Using symmetry in CPHF.
          Requested convergence is 1.0D-08 RMS, and 1.0D-07 maximum.
          Secondary convergence is 1.0D-12 RMS, and 1.0D-12 maximum.
          NewPWx=T KeepS1=F KeepF1=F KeepIn=T MapXYZ=F SortEE=F KeepMc=T.
          MDV=      33553954 using IRadAn=       2.
 Generate precomputed XC quadrature information.
          Solving linear equations simultaneously, MaxMat=       0.
 FoFJK:  IHMeth= 1 ICntrl=       0 DoSepK=F KAlg= 0 I1Cent=   0 FoldK=F
 IRaf= 960000000 NMat=  24 IRICut=      60 DoRegI=T DoRafI=T ISym2E= 2.
 FoFCou: FMM=F IPFlag=           0 FMFlag=      100000 FMFlg1=           0
         NFxFlg=           0 DoJE=F BraDBF=F KetDBF=F FulRan=T
         wScrn=  0.000000 ICntrl=       0 IOpCl=  1 I1Cent=           0 NGrid=           0
         NMat0=   24 NMatS0=     24 NMatT0=    0 NMatD0=   24 NMtDS0=    0 NMtDT0=    0
 Integrals replicated using symmetry in FoFCou.
          There are    24 degrees of freedom in the 1st order CPHF.  IDoFFX=6 NUNeed=     3.
     21 vectors produced by pass  0 Test12= 3.50D-14 4.17D-09 XBig12= 3.72D+02 1.18D+01.
 AX will form    21 AO Fock derivatives at one time.
     21 vectors produced by pass  1 Test12= 3.50D-14 4.17D-09 XBig12= 1.29D+02 2.02D+00.
     21 vectors produced by pass  2 Test12= 3.50D-14 4.17D-09 XBig12= 5.14D+00 6.10D-01.
     21 vectors produced by pass  3 Test12= 3.50D-14 4.17D-09 XBig12= 7.46D-02 6.78D-02.
     21 vectors produced by pass  4 Test12= 3.50D-14 4.17D-09 XBig12= 1.02D-03 4.42D-03.
     21 vectors produced by pass  5 Test12= 3.50D-14 4.17D-09 XBig12= 9.77D-06 3.74D-04.
     21 vectors produced by pass  6 Test12= 3.50D-14 4.17D-09 XBig12= 5.94D-08 3.06D-05.
     15 vectors produced by pass  7 Test12= 3.50D-14 4.17D-09 XBig12= 4.84D-10 2.80D-06.
      4 vectors produced by pass  8 Test12= 3.50D-14 4.17D-09 XBig12= 2.27D-12 2.41D-07.
      3 vectors produced by pass  9 Test12= 3.50D-14 4.17D-09 XBig12= 2.15D-14 2.21D-08.
 InvSVY:  IOpt=1 It=  1 EMax= 8.88D-15
 Solved reduced A of dimension   169 with    24 vectors.
 FullF1:  Do perturbations    1 to     3.
 Isotropic polarizability for W=    0.000000       73.81 Bohr**3.
 End of Minotr F.D. properties file   721 does not exist.
 End of Minotr F.D. properties file   722 does not exist.
 End of Minotr F.D. properties file   788 does not exist.
 Leave Link 1002 at Wed Aug  3 22:51:54 2016, MaxMem=    33554432 cpu:       391.9
 (Enter /home/proyectos/fulerenos/M3C-v2.0/M3C-deps_CCC/g09-AM64L-G09RevC.01/l601.exe)
 Copying SCF densities to generalized density rwf, IOpCl= 1 IROHF=0.

 **********************************************************************

            Population analysis using the SCF density.

 **********************************************************************

 Orbital symmetries:
 Alpha Orbitals:
       Occupied  (A') (A') (A') (A') (A') (A') (A') (A") (A') (A")
                 (A') (A') (A') (A') (A') (A') (A') (A') (A') (A")
                 (A') (A") (A') (A")
       Virtual   (A") (A') (A') (A') (A') (A") (A') (A') (A') (A")
                 (A') (A") (A') (A') (A') (A') (A') (A") (A') (A')
                 (A') (A') (A') (A') (A") (A') (A") (A') (A") (A')
                 (A') (A') (A") (A') (A") (A') (A") (A') (A') (A')
                 (A") (A') (A") (A') (A") (A') (A') (A') (A') (A')
                 (A') (A") (A') (A") (A') (A') (A") (A') (A') (A')
                 (A') (A') (A") (A") (A') (A") (A') (A") (A') (A')
                 (A") (A") (A') (A') (A') (A') (A") (A') (A') (A')
                 (A') (A') (A') (A') (A") (A") (A") (A") (A') (A')
                 (A") (A") (A') (A") (A') (A") (A') (A") (A') (A')
                 (A') (A') (A') (A") (A') (A') (A") (A") (A') (A')
                 (A') (A') (A') (A') (A') (A') (A") (A') (A") (A")
                 (A") (A') (A") (A') (A') (A") (A') (A") (A') (A')
                 (A") (A') (A') (A') (A') (A') (A') (A") (A') (A")
                 (A") (A') (A') (A") (A') (A") (A") (A') (A") (A')
                 (A') (A') (A') (A') (A') (A') (A") (A") (A") (A')
                 (A") (A') (A') (A') (A') (A') (A') (A') (A") (A")
                 (A') (A') (A') (A') (A') (A') (A') (A')
 Beta  Orbitals:
       Occupied  (A') (A') (A') (A') (A') (A') (A') (A') (A") (A')
                 (A") (A') (A') (A') (A') (A') (A') (A') (A') (A")
                 (A') (A") (A')
       Virtual   (A") (A") (A') (A') (A') (A') (A") (A') (A') (A')
                 (A") (A') (A") (A') (A') (A') (A') (A') (A") (A')
                 (A') (A') (A') (A') (A') (A") (A') (A") (A') (A')
                 (A") (A') (A') (A") (A') (A") (A') (A") (A') (A')
                 (A') (A") (A') (A") (A') (A') (A") (A') (A') (A')
                 (A') (A') (A') (A") (A") (A') (A') (A") (A') (A')
                 (A') (A') (A') (A") (A") (A') (A") (A') (A") (A')
                 (A') (A") (A") (A') (A') (A') (A') (A") (A') (A')
                 (A') (A') (A') (A') (A') (A") (A") (A") (A") (A')
                 (A') (A") (A") (A') (A") (A') (A") (A') (A") (A')
                 (A') (A') (A') (A') (A") (A') (A') (A") (A") (A')
                 (A') (A') (A') (A') (A') (A') (A') (A') (A") (A")
                 (A") (A") (A') (A") (A') (A') (A") (A') (A") (A')
                 (A') (A") (A') (A') (A') (A') (A') (A') (A') (A")
                 (A") (A") (A') (A') (A") (A') (A") (A") (A') (A")
                 (A') (A') (A') (A') (A') (A') (A') (A") (A") (A")
                 (A") (A') (A') (A') (A') (A') (A') (A') (A') (A")
                 (A") (A') (A') (A') (A') (A') (A') (A') (A')
 The electronic state is 2-A".
 Alpha  occ. eigenvalues --  -88.91093 -88.83742 -10.25765 -10.22331  -7.99522
 Alpha  occ. eigenvalues --   -7.92375  -5.95741  -5.95353  -5.95342  -5.88659
 Alpha  occ. eigenvalues --   -5.88566  -5.87809  -0.87081  -0.77620  -0.68088
 Alpha  occ. eigenvalues --   -0.56997  -0.49839  -0.44103  -0.42593  -0.39158
 Alpha  occ. eigenvalues --   -0.35996  -0.30789  -0.24012  -0.21434
 Alpha virt. eigenvalues --   -0.08150  -0.01194  -0.00548   0.01744   0.02033
 Alpha virt. eigenvalues --    0.04114   0.04416   0.04966   0.05688   0.07126
 Alpha virt. eigenvalues --    0.07365   0.08266   0.09029   0.09718   0.11234
 Alpha virt. eigenvalues --    0.12159   0.12809   0.12947   0.14497   0.15191
 Alpha virt. eigenvalues --    0.15430   0.16590   0.17050   0.18115   0.18352
 Alpha virt. eigenvalues --    0.19513   0.23819   0.25357   0.27487   0.27545
 Alpha virt. eigenvalues --    0.29474   0.29915   0.30624   0.32548   0.32585
 Alpha virt. eigenvalues --    0.33854   0.35385   0.35669   0.36135   0.38765
 Alpha virt. eigenvalues --    0.39864   0.40880   0.46051   0.48602   0.49708
 Alpha virt. eigenvalues --    0.50906   0.55620   0.56768   0.58456   0.60607
 Alpha virt. eigenvalues --    0.61561   0.63366   0.64333   0.66747   0.67709
 Alpha virt. eigenvalues --    0.71405   0.71628   0.75340   0.78612   0.83854
 Alpha virt. eigenvalues --    0.85248   0.90825   0.91689   0.93410   0.94255
 Alpha virt. eigenvalues --    0.97073   0.98758   0.99632   1.00153   1.00588
 Alpha virt. eigenvalues --    1.02382   1.04351   1.05788   1.07956   1.08880
 Alpha virt. eigenvalues --    1.10377   1.11871   1.17237   1.22594   1.25314
 Alpha virt. eigenvalues --    1.30931   1.35354   1.38855   1.41240   1.48129
 Alpha virt. eigenvalues --    1.48839   1.51066   1.53336   1.59421   1.65083
 Alpha virt. eigenvalues --    1.65388   1.66746   1.68230   1.69576   1.71490
 Alpha virt. eigenvalues --    1.76176   1.77085   1.82826   1.87267   1.88077
 Alpha virt. eigenvalues --    1.92739   1.96681   2.02922   2.04275   2.05961
 Alpha virt. eigenvalues --    2.08169   2.08409   2.23521   2.23977   2.34219
 Alpha virt. eigenvalues --    2.37307   2.41023   2.45018   2.48296   2.64142
 Alpha virt. eigenvalues --    2.69007   2.74037   2.78949   2.79743   2.95681
 Alpha virt. eigenvalues --    2.97057   3.03179   3.04415   3.08891   3.09075
 Alpha virt. eigenvalues --    3.19245   3.22373   3.25524   3.29731   3.35506
 Alpha virt. eigenvalues --    3.37825   3.51395   3.53199   3.59946   3.64278
 Alpha virt. eigenvalues --    3.83385   3.94769   4.16499   4.16741   4.21535
 Alpha virt. eigenvalues --    4.27033   4.40899   4.60399   4.64427   4.69079
 Alpha virt. eigenvalues --    4.72424   4.80996   4.85764   4.89156   4.95777
 Alpha virt. eigenvalues --    5.10433   5.18447   5.43053   5.56568   5.59018
 Alpha virt. eigenvalues --    5.71699   7.00538   7.03769   7.11336   7.17789
 Alpha virt. eigenvalues --    7.18560   7.26178   7.29863   7.45072   7.64677
 Alpha virt. eigenvalues --    7.76172   8.50812   8.62209  17.30968  17.36441
 Alpha virt. eigenvalues --   17.48515  17.77069  17.91276  17.94716  23.93628
 Alpha virt. eigenvalues --   24.10885 189.35602 189.47899
  Beta  occ. eigenvalues --  -88.91089 -88.83608 -10.25715 -10.21276  -7.99511
  Beta  occ. eigenvalues --   -7.92253  -5.95750  -5.95359  -5.95285  -5.88495
  Beta  occ. eigenvalues --   -5.88237  -5.87735  -0.86391  -0.76791  -0.66377
  Beta  occ. eigenvalues --   -0.56256  -0.49408  -0.43491  -0.42214  -0.37417
  Beta  occ. eigenvalues --   -0.35654  -0.28376  -0.23723
  Beta virt. eigenvalues --   -0.12268  -0.05443  -0.00939  -0.00518   0.01801
  Beta virt. eigenvalues --    0.02086   0.04228   0.04555   0.04986   0.05759
  Beta virt. eigenvalues --    0.07210   0.07546   0.09091   0.09144   0.09738
  Beta virt. eigenvalues --    0.11462   0.12247   0.12990   0.13166   0.14684
  Beta virt. eigenvalues --    0.15450   0.15491   0.16688   0.17389   0.18189
  Beta virt. eigenvalues --    0.18786   0.19648   0.24840   0.25381   0.27687
  Beta virt. eigenvalues --    0.27874   0.29638   0.30135   0.31159   0.32678
  Beta virt. eigenvalues --    0.33431   0.34195   0.35842   0.35972   0.36267
  Beta virt. eigenvalues --    0.39491   0.40725   0.41204   0.47089   0.48867
  Beta virt. eigenvalues --    0.51137   0.51453   0.56107   0.57214   0.58719
  Beta virt. eigenvalues --    0.60748   0.62008   0.64770   0.65453   0.67109
  Beta virt. eigenvalues --    0.67903   0.71900   0.72010   0.75755   0.78831
  Beta virt. eigenvalues --    0.84220   0.85638   0.91229   0.92392   0.93947
  Beta virt. eigenvalues --    0.94492   0.97702   0.98902   0.99892   1.00321
  Beta virt. eigenvalues --    1.00789   1.02877   1.05109   1.06164   1.08383
  Beta virt. eigenvalues --    1.08952   1.10535   1.12340   1.17950   1.22792
  Beta virt. eigenvalues --    1.25456   1.31313   1.35484   1.38940   1.42298
  Beta virt. eigenvalues --    1.49012   1.49898   1.52761   1.54828   1.59678
  Beta virt. eigenvalues --    1.65253   1.66227   1.67499   1.68965   1.70499
  Beta virt. eigenvalues --    1.72011   1.76873   1.77488   1.84604   1.87880
  Beta virt. eigenvalues --    1.90070   1.92998   1.96954   2.03972   2.06037
  Beta virt. eigenvalues --    2.06480   2.08637   2.09259   2.24207   2.24384
  Beta virt. eigenvalues --    2.34384   2.37661   2.41155   2.45128   2.48698
  Beta virt. eigenvalues --    2.64617   2.70485   2.79120   2.79427   2.80332
  Beta virt. eigenvalues --    2.97398   2.99255   3.04660   3.05704   3.09596
  Beta virt. eigenvalues --    3.11556   3.19879   3.23131   3.27838   3.30016
  Beta virt. eigenvalues --    3.36218   3.38481   3.51473   3.53927   3.60339
  Beta virt. eigenvalues --    3.64463   3.83529   3.94912   4.16375   4.17182
  Beta virt. eigenvalues --    4.21737   4.27502   4.40885   4.60279   4.64724
  Beta virt. eigenvalues --    4.69426   4.72606   4.81395   4.85906   4.89507
  Beta virt. eigenvalues --    4.95802   5.10537   5.18804   5.43229   5.56778
  Beta virt. eigenvalues --    5.59203   5.71913   7.03760   7.05836   7.16094
  Beta virt. eigenvalues --    7.19008   7.19915   7.30075   7.30998   7.45660
  Beta virt. eigenvalues --    7.65284   7.76478   8.50981   8.62380  17.31067
  Beta virt. eigenvalues --   17.36996  17.48615  17.77061  17.91280  17.94811
  Beta virt. eigenvalues --   23.93687  24.12033 189.35667 189.47961
          Condensed to atoms (all electrons):
               1          2          3          4          5          6
     1  S   15.764034   0.088888   0.157624   0.224675  -0.092980  -0.043683
     2  S    0.088888  16.158652   0.285543  -0.054034  -0.118930  -0.001863
     3  C    0.157624   0.285543   4.955921  -0.008606   0.463043   0.003772
     4  C    0.224675  -0.054034  -0.008606   5.261159   0.021126   0.405412
     5  H   -0.092980  -0.118930   0.463043   0.021126   0.524394   0.001929
     6  H   -0.043683  -0.001863   0.003772   0.405412   0.001929   0.487199
     7  H   -0.047460   0.011353   0.012872   0.417531   0.000975  -0.031788
               7
     1  S   -0.047460
     2  S    0.011353
     3  C    0.012872
     4  C    0.417531
     5  H    0.000975
     6  H   -0.031788
     7  H    0.457843
          Atomic-Atomic Spin Densities.
               1          2          3          4          5          6
     1  S    0.055602  -0.009776   0.059672  -0.066051  -0.001189   0.002011
     2  S   -0.009776   0.286672  -0.055168   0.021662  -0.001303   0.001119
     3  C    0.059672  -0.055168   0.046847  -0.019984   0.001462  -0.000971
     4  C   -0.066051   0.021662  -0.019984   0.794458  -0.000191   0.003965
     5  H   -0.001189  -0.001303   0.001462  -0.000191  -0.004978  -0.000122
     6  H    0.002011   0.001119  -0.000971   0.003965  -0.000122  -0.036891
     7  H    0.002857  -0.000475  -0.000798   0.003193  -0.000027   0.006078
               7
     1  S    0.002857
     2  S   -0.000475
     3  C   -0.000798
     4  C    0.003193
     5  H   -0.000027
     6  H    0.006078
     7  H   -0.033637
 Mulliken charges and spin densities:
               1          2
     1  S   -0.051099   0.043126
     2  S   -0.369610   0.242730
     3  C    0.129831   0.031059
     4  C   -0.267263   0.737052
     5  H    0.200443  -0.006347
     6  H    0.179022  -0.024810
     7  H    0.178675  -0.022810
 Sum of Mulliken charges =  -0.00000   1.00000
 Mulliken charges and spin densities with hydrogens summed into heavy atoms:
               1          2
     1  S   -0.051099   0.043126
     2  S   -0.369610   0.242730
     3  C    0.330275   0.024712
     4  C    0.090434   0.689432
 APT charges:
               1
     1  S   -0.076311
     2  S   -0.383731
     3  C    0.393028
     4  C   -0.154139
     5  H    0.042283
     6  H    0.097292
     7  H    0.081579
 Sum of APT charges =   0.00000
 APT charges with hydrogens summed into heavy atoms:
               1
     1  S   -0.076311
     2  S   -0.383731
     3  C    0.435311
     4  C    0.024731
 Electronic spatial extent (au):  <R**2>=            505.6283
 Charge=              0.0000 electrons
 Dipole moment (field-independent basis, Debye):
    X=             -2.0603    Y=             -0.9321    Z=              0.0000  Tot=              2.2614
 Quadrupole moment (field-independent basis, Debye-Ang):
   XX=            -40.4039   YY=            -35.0427   ZZ=            -40.5005
   XY=             -1.0294   XZ=              0.0000   YZ=             -0.0000
 Traceless Quadrupole moment (field-independent basis, Debye-Ang):
   XX=             -1.7549   YY=              3.6063   ZZ=             -1.8515
   XY=             -1.0294   XZ=              0.0000   YZ=             -0.0000
 Octapole moment (field-independent basis, Debye-Ang**2):
  XXX=             -3.9318  YYY=             -6.2303  ZZZ=             -0.0000  XYY=             -9.6706
  XXY=             -5.5379  XXZ=              0.0000  XZZ=              0.1294  YZZ=              1.2889
  YYZ=              0.0000  XYZ=              0.0000
 Hexadecapole moment (field-independent basis, Debye-Ang**3):
 XXXX=           -401.1454 YYYY=           -247.1809 ZZZZ=            -53.8686 XXXY=            -72.6224
 XXXZ=              0.0000 YYYX=            -72.4291 YYYZ=             -0.0000 ZZZX=              0.0000
 ZZZY=              0.0000 XXYY=           -110.9349 XXZZ=            -77.8080 YYZZ=            -59.2443
 XXYZ=             -0.0000 YYXZ=              0.0000 ZZXY=            -25.7626
 N-N= 1.895388957260D+02 E-N=-2.453905974841D+03  KE= 8.729244377079D+02
 Symmetry A'   KE= 7.949970210647D+02
 Symmetry A"   KE= 7.792741664324D+01
  Exact polarizability:  92.929  18.942  82.307   0.000  -0.000  46.197
 Approx polarizability: 175.741  31.096 137.003  -0.000  -0.000  74.134
                          Isotropic Fermi Contact Couplings
        Atom                 a.u.       MegaHertz       Gauss      10(-4) cm-1
     1  S(33)             -0.00694      -2.38389      -0.85063      -0.79518
     2  S(33)              0.00863       2.96317       1.05733       0.98841
     3  C(13)              0.00102       1.14635       0.40905       0.38238
     4  C(13)              0.05000      56.20780      20.05634      18.74890
     5  H(1)              -0.00123      -5.48685      -1.95784      -1.83022
     6  H(1)              -0.00976     -43.62183     -15.56535     -14.55068
     7  H(1)              -0.00996     -44.50170     -15.87931     -14.84417
 --------------------------------------------------------
       Center         ----  Spin Dipole Couplings  ----
                      3XX-RR        3YY-RR        3ZZ-RR
 --------------------------------------------------------
     1   Atom       -0.097795     -0.114983      0.212777
     2   Atom       -0.510915     -0.500068      1.010983
     3   Atom       -0.018682     -0.024210      0.042891
     4   Atom       -0.438119     -0.435367      0.873486
     5   Atom       -0.006140      0.008564     -0.002424
     6   Atom       -0.011200      0.010164      0.001036
     7   Atom        0.050821     -0.051048      0.000228
 --------------------------------------------------------
                        XY            XZ            YZ
 --------------------------------------------------------
     1   Atom        0.034246      0.000000     -0.000000
     2   Atom        0.007640      0.000000     -0.000000
     3   Atom        0.004381      0.000000      0.000000
     4   Atom        0.001919      0.000000      0.000000
     5   Atom        0.000539     -0.000000      0.000000
     6   Atom        0.054054      0.000000      0.000000
     7   Atom       -0.009146      0.000000     -0.000000
 --------------------------------------------------------


 ---------------------------------------------------------------------------------
              Anisotropic Spin Dipole Couplings in Principal Axis System
 ---------------------------------------------------------------------------------

       Atom             a.u.   MegaHertz   Gauss  10(-4) cm-1        Axes

              Baa    -0.1417    -5.809    -2.073    -1.938 -0.6151  0.7885 -0.0000
     1 S(33)  Bbb    -0.0711    -2.914    -1.040    -0.972  0.7885  0.6151  0.0000
              Bcc     0.2128     8.724     3.113     2.910  0.0000  0.0000  1.0000
 
              Baa    -0.5149   -21.109    -7.532    -7.041  0.8885 -0.4589  0.0000
     2 S(33)  Bbb    -0.4961   -20.341    -7.258    -6.785  0.4589  0.8885 -0.0000
              Bcc     1.0110    41.449    14.790    13.826  0.0000  0.0000  1.0000
 
              Baa    -0.0266    -3.573    -1.275    -1.192 -0.4829  0.8757 -0.0000
     3 C(13)  Bbb    -0.0163    -2.183    -0.779    -0.728  0.8757  0.4829  0.0000
              Bcc     0.0429     5.756     2.054     1.920  0.0000  0.0000  1.0000
 
              Baa    -0.4391   -58.924   -21.025   -19.655  0.8896 -0.4567 -0.0000
     4 C(13)  Bbb    -0.4344   -58.290   -20.799   -19.443  0.4567  0.8896 -0.0000
              Bcc     0.8735   117.213    41.825    39.098  0.0000  0.0000  1.0000
 
              Baa    -0.0062    -3.286    -1.173    -1.096  0.9993 -0.0366  0.0000
     5 H(1)   Bbb    -0.0024    -1.294    -0.462    -0.431 -0.0000 -0.0000  1.0000
              Bcc     0.0086     4.580     1.634     1.528  0.0366  0.9993  0.0000
 
              Baa    -0.0556   -29.675   -10.589    -9.899  0.7726 -0.6349 -0.0000
     6 H(1)   Bbb     0.0010     0.553     0.197     0.184 -0.0000 -0.0000  1.0000
              Bcc     0.0546    29.122    10.392     9.714  0.6349  0.7726  0.0000
 
              Baa    -0.0519   -27.672    -9.874    -9.230  0.0887  0.9961 -0.0000
     7 H(1)   Bbb     0.0002     0.121     0.043     0.041 -0.0000  0.0000  1.0000
              Bcc     0.0516    27.550     9.831     9.190  0.9961 -0.0887  0.0000
 

 ---------------------------------------------------------------------------------

 No NMR shielding tensors so no spin-rotation constants.
 Leave Link  601 at Wed Aug  3 22:51:54 2016, MaxMem=    33554432 cpu:         1.5
 (Enter /home/proyectos/fulerenos/M3C-v2.0/M3C-deps_CCC/g09-AM64L-G09RevC.01/l701.exe)
 Compute integral second derivatives.
 ... and contract with generalized density number  0.
 Leave Link  701 at Wed Aug  3 22:51:55 2016, MaxMem=    33554432 cpu:         1.0
 (Enter /home/proyectos/fulerenos/M3C-v2.0/M3C-deps_CCC/g09-AM64L-G09RevC.01/l702.exe)
 L702 exits ... SP integral derivatives will be done elsewhere.
 Leave Link  702 at Wed Aug  3 22:51:55 2016, MaxMem=    33554432 cpu:         0.1
 (Enter /home/proyectos/fulerenos/M3C-v2.0/M3C-deps_CCC/g09-AM64L-G09RevC.01/l703.exe)
 Compute integral second derivatives, UseDBF=F ICtDFT=           0.
 Integral derivatives from FoFJK, PRISM(SPDF).
 Calling FoFJK, ICntrl=    100127 FMM=F ISym2X=1 I1Cent= 0 IOpClX= 1 NMat=1 NMatS=1 NMatT=0.
 FoFJK:  IHMeth= 1 ICntrl=  100127 DoSepK=F KAlg= 0 I1Cent=   0 FoldK=F
 IRaf=         0 NMat=   1 IRICut=       1 DoRegI=T DoRafI=F ISym2E= 1.
 FoFCou: FMM=F IPFlag=           0 FMFlag=      100000 FMFlg1=         800
         NFxFlg=           0 DoJE=F BraDBF=F KetDBF=F FulRan=T
         wScrn=  0.000000 ICntrl=  100127 IOpCl=  1 I1Cent=           0 NGrid=           0
         NMat0=    1 NMatS0=      1 NMatT0=    0 NMatD0=    1 NMtDS0=    0 NMtDT0=    0
 Petite list used in FoFCou.
 Leave Link  703 at Wed Aug  3 22:52:39 2016, MaxMem=    33554432 cpu:       177.6
 (Enter /home/proyectos/fulerenos/M3C-v2.0/M3C-deps_CCC/g09-AM64L-G09RevC.01/l716.exe)
 Dipole        =-8.10587101D-01-3.66726041D-01 3.30441122D-17
 Polarizability= 9.29286601D+01 1.89419044D+01 8.23069167D+01
                 6.05109810D-09-5.16958620D-08 4.61965126D+01
 Full mass-weighted force constant matrix:
 Low frequencies ---   -4.8978   -0.0021    0.0031    0.0039    3.6266   17.3936
 Low frequencies ---  216.6433  224.8809  394.1140
 Diagonal vibrational polarizability:
        5.3072036       2.6504267       6.2571935
 Harmonic frequencies (cm**-1), IR intensities (KM/Mole), Raman scattering
 activities (A**4/AMU), depolarization ratios for plane and unpolarized
 incident light, reduced masses (AMU), force constants (mDyne/A),
 and normal coordinates:
                      1                      2                      3
                     A'                     A"                     A"
 Frequencies --    216.6432               224.8764               394.1137
 Red. masses --      4.2461                 2.4318                 1.1949
 Frc consts  --      0.1174                 0.0725                 0.1094
 IR Inten    --      2.3551                 0.6673                 0.6260
  Atom  AN      X      Y      Z        X      Y      Z        X      Y      Z
     1  16    -0.03   0.04   0.00    -0.00   0.00  -0.10     0.00   0.00  -0.05
     2  16    -0.11  -0.17   0.00    -0.00  -0.00  -0.07    -0.00  -0.00  -0.01
     3   6    -0.06   0.09  -0.00    -0.00   0.00   0.25    -0.00   0.00   0.10
     4   6     0.34   0.20  -0.00     0.00   0.00   0.14    -0.00  -0.00   0.03
     5   1     0.04   0.12  -0.00     0.00   0.00   0.64    -0.00   0.00   0.15
     6   1     0.58   0.01   0.00     0.00   0.00  -0.31    -0.00   0.00   0.78
     7   1     0.38   0.54  -0.00     0.00   0.00   0.63    -0.00  -0.00  -0.60
                      4                      5                      6
                     A'                     A"                     A'
 Frequencies --    418.6146               558.5219               717.7163
 Red. masses --      5.8827                 1.2642                 7.3568
 Frc consts  --      0.6074                 0.2323                 2.2328
 IR Inten    --      0.6953                53.8340                28.1504
  Atom  AN      X      Y      Z        X      Y      Z        X      Y      Z
     1  16     0.29   0.03   0.00    -0.00   0.00   0.01    -0.15  -0.13  -0.00
     2  16    -0.21  -0.07   0.00     0.00   0.00  -0.00     0.09  -0.05  -0.00
     3   6    -0.09   0.22  -0.00    -0.00  -0.00   0.01     0.11   0.63   0.00
     4   6    -0.07  -0.10  -0.00     0.00   0.00  -0.15     0.02  -0.19  -0.00
     5   1    -0.17   0.19  -0.00     0.00  -0.00  -0.01     0.10   0.62  -0.00
     6   1    -0.50   0.23  -0.00     0.00  -0.00   0.66    -0.05  -0.14   0.00
     7   1    -0.14  -0.64   0.00    -0.00   0.00   0.74     0.01  -0.29   0.00
                      7                      8                      9
                     A"                     A'                     A'
 Frequencies --    771.5444               846.7949               922.9188
 Red. masses --      1.3525                 5.8438                 1.3529
 Frc consts  --      0.4744                 2.4689                 0.6789
 IR Inten    --     25.4256                23.5031                 9.5972
  Atom  AN      X      Y      Z        X      Y      Z        X      Y      Z
     1  16    -0.00  -0.00   0.01     0.07  -0.23  -0.00     0.04   0.00   0.00
     2  16     0.00  -0.00   0.02     0.06  -0.01  -0.00    -0.02  -0.00  -0.00
     3   6     0.00   0.00  -0.17    -0.08   0.09   0.00     0.04   0.04   0.00
     4   6    -0.00   0.00   0.01    -0.20   0.47  -0.00    -0.13  -0.06  -0.00
     5   1    -0.00   0.00   0.98    -0.25   0.01  -0.00    -0.07  -0.01  -0.00
     6   1     0.00  -0.00   0.07    -0.26   0.54  -0.00     0.45  -0.51  -0.00
     7   1    -0.00   0.00  -0.02    -0.21   0.45  -0.00    -0.04   0.71  -0.00
                     10                     11                     12
                     A'                     A'                     A'
 Frequencies --   1038.8083              1288.7778              1382.8926
 Red. masses --      4.2317                 1.2378                 1.1359
 Frc consts  --      2.6905                 1.2113                 1.2799
 IR Inten    --    129.0957                29.2707                 8.3635
  Atom  AN      X      Y      Z        X      Y      Z        X      Y      Z
     1  16    -0.02  -0.06   0.00     0.01  -0.01   0.00    -0.00   0.00  -0.00
     2  16    -0.16   0.04   0.00     0.01   0.01   0.00    -0.00  -0.00  -0.00
     3   6     0.44  -0.05  -0.00    -0.13  -0.02  -0.00     0.03   0.00  -0.00
     4   6    -0.01   0.09  -0.00    -0.01  -0.03   0.00     0.04  -0.09   0.00
     5   1     0.84   0.10   0.00     0.88   0.39  -0.00    -0.17  -0.08   0.00
     6   1    -0.10   0.17   0.00    -0.09   0.03  -0.00    -0.58   0.42  -0.00
     7   1    -0.03  -0.08   0.00     0.02   0.22  -0.00     0.13   0.65   0.00
                     13                     14                     15
                     A'                     A'                     A'
 Frequencies --   3104.6096              3148.6778              3284.5998
 Red. masses --      1.0860                 1.0470                 1.1220
 Frc consts  --      6.1673                 6.1159                 7.1318
 IR Inten    --      6.8387                 0.2979                 5.3297
  Atom  AN      X      Y      Z        X      Y      Z        X      Y      Z
     1  16     0.00  -0.00  -0.00     0.00  -0.00  -0.00    -0.00   0.00  -0.00
     2  16    -0.00   0.00  -0.00    -0.00   0.00  -0.00     0.00  -0.00   0.00
     3   6     0.03  -0.08   0.00     0.00  -0.00  -0.00    -0.00  -0.00  -0.00
     4   6     0.00  -0.00  -0.00    -0.03   0.05   0.00    -0.09  -0.05  -0.00
     5   1    -0.37   0.92   0.00    -0.02   0.05   0.00    -0.00   0.01   0.00
     6   1     0.02   0.02   0.00    -0.39  -0.48   0.00     0.49   0.62   0.00
     7   1    -0.05   0.01   0.00     0.78  -0.09   0.00     0.60  -0.08  -0.00

 -------------------
 - Thermochemistry -
 -------------------
 Temperature   298.150 Kelvin.  Pressure   1.00000 Atm.
 Atom     1 has atomic number 16 and mass  31.97207
 Atom     2 has atomic number 16 and mass  31.97207
 Atom     3 has atomic number  6 and mass  12.00000
 Atom     4 has atomic number  6 and mass  12.00000
 Atom     5 has atomic number  1 and mass   1.00783
 Atom     6 has atomic number  1 and mass   1.00783
 Atom     7 has atomic number  1 and mass   1.00783
 Molecular mass:    90.96762 amu.
 Principal axes and moments of inertia in atomic units:
                           1         2         3
     Eigenvalues --   154.26089 627.63530 781.89619
           X            0.86757  -0.49732   0.00000
           Y            0.49732   0.86757   0.00000
           Z           -0.00000   0.00000   1.00000
 This molecule is an asymmetric top.
 Rotational symmetry number  1.
 Rotational temperatures (Kelvin)      0.56148     0.13800     0.11077
 Rotational constants (GHZ):          11.69928     2.87546     2.30816
 Zero-point vibrational energy     109578.6 (Joules/Mol)
                                   26.18991 (Kcal/Mol)
 Warning -- explicit consideration of   5 degrees of freedom as
           vibrations may cause significant error
 Vibrational temperatures:    311.70   323.55   567.04   602.29   803.59
          (Kelvin)           1032.63  1110.08  1218.35  1327.87  1494.61
                             1854.26  1989.67  4466.84  4530.24  4725.80
 
 Zero-point correction=                           0.041736 (Hartree/Particle)
 Thermal correction to Energy=                    0.046777
 Thermal correction to Enthalpy=                  0.047722
 Thermal correction to Gibbs Free Energy=         0.012608
 Sum of electronic and zero-point Energies=           -874.382055
 Sum of electronic and thermal Energies=              -874.377014
 Sum of electronic and thermal Enthalpies=            -874.376070
 Sum of electronic and thermal Free Energies=         -874.411183
 
                     E (Thermal)             CV                S
                      KCal/Mol        Cal/Mol-Kelvin    Cal/Mol-Kelvin
 Total                   29.353             16.757             73.902
 Electronic               0.000              0.000              1.377
 Translational            0.889              2.981             39.436
 Rotational               0.889              2.981             25.829
 Vibrational             27.576             10.796              7.260
 Vibration     1          0.645              1.816              1.987
 Vibration     2          0.650              1.803              1.919
 Vibration     3          0.761              1.483              0.985
 Vibration     4          0.781              1.430              0.897
 Vibration     5          0.914              1.121              0.527
                       Q            Log10(Q)             Ln(Q)
 Total Bot       0.158719D-05         -5.799370        -13.353543
 Total V=0       0.250003D+14         13.397946         30.849910
 Vib (Bot)       0.236272D-18        -18.626588        -42.889304
 Vib (Bot)    1  0.914315D+00         -0.038904         -0.089580
 Vib (Bot)    2  0.877796D+00         -0.056606         -0.130341
 Vib (Bot)    3  0.454186D+00         -0.342766         -0.789248
 Vib (Bot)    4  0.419897D+00         -0.376857         -0.867745
 Vib (Bot)    5  0.278675D+00         -0.554902         -1.277709
 Vib (V=0)       0.372158D+01          0.570728          1.314149
 Vib (V=0)    1  0.154210D+01          0.188113          0.433145
 Vib (V=0)    2  0.151021D+01          0.179038          0.412249
 Vib (V=0)    3  0.117549D+01          0.070218          0.161684
 Vib (V=0)    4  0.115293D+01          0.061802          0.142304
 Vib (V=0)    5  0.107242D+01          0.030363          0.069914
 Electronic      0.200000D+01          0.301030          0.693147
 Translational   0.341024D+08          7.532785         17.344879
 Rotational      0.984924D+05          4.993403         11.497734
 
                                                              b3lyp opt
                                                             IR Spectrum
 
     3     33                                                                  1   1        1                                        
     2     11                                                                  3   2        0    9  8  7 7     5    43     22        
     8     40                                                                  8   8        3    2  4  7 1     5    19     21        
     5     95                                                                  3   9        9    3  7  2 8     9    94     57        
 
     X     XX                                                                  X   X        X    X  X  X X     X    XX     XX        
                                                                                   X        X       X  X X     X                     
                                                                                   X        X       X  X X     X                     
                                                                                   X        X       X  X X     X                     
                                                                                   X        X                  X                     
                                                                                            X                  X                     
                                                                                            X                  X                     
                                                                                            X                  X                     
                                                                                            X                                        
                                                                                            X                                        
                                                                                            X                                        
                                                                                            X                                        
                                                                                            X                                        
                                                                                            X                                        
                                                                                            X                                        
                                                                                            X                                        
                                                                                            X                                        
                                                                                            X                                        
                                                                                            X                                        
                                                                                            X                                        
 
 ***** Axes restored to original set *****
 -------------------------------------------------------------------
 Center     Atomic                   Forces (Hartrees/Bohr)
 Number     Number              X              Y              Z
 -------------------------------------------------------------------
      1       16          -0.000006146    0.000005136    0.000008951
      2       16          -0.000000051   -0.000000294   -0.000006647
      3        6           0.000014565   -0.000010925    0.000003699
      4        6          -0.000022059    0.000015805   -0.000020401
      5        1          -0.000012534    0.000010012    0.000009008
      6        1           0.000011550   -0.000008826   -0.000000318
      7        1           0.000014674   -0.000010908    0.000005707
 -------------------------------------------------------------------
 Cartesian Forces:  Max     0.000022059 RMS     0.000011134
 Z-matrix is all fixed cartesians, so copy forces.
 Force constants in Cartesian coordinates: 
                1             2             3             4             5 
      1  0.181466D+00
      2 -0.118262D+00  0.113384D+00
      3  0.380561D-01 -0.151198D-01  0.301664D+00
      4 -0.275138D-01  0.305755D-01  0.183054D-01  0.124041D+00
      5  0.305904D-01 -0.127253D-01 -0.151482D-01 -0.927227D-01  0.872801D-01
      6  0.186020D-01 -0.153745D-01 -0.122912D-01 -0.130524D+00  0.109764D+00
      7 -0.103799D+00  0.573169D-01 -0.163940D-01 -0.100785D+00  0.598401D-01
      8  0.581798D-01 -0.713714D-01  0.117984D-01  0.605463D-01 -0.789447D-01
      9  0.836453D-03 -0.134495D-02 -0.416979D-01  0.110282D+00 -0.927824D-01
     10 -0.500233D-01  0.274974D-01 -0.111413D-01  0.498926D-03 -0.168138D-02
     11  0.259709D-01 -0.331459D-01 -0.182872D-02 -0.165503D-02 -0.196167D-03
     12 -0.416220D-01  0.214219D-01 -0.219453D+00 -0.155371D-02  0.179753D-02
     13 -0.576782D-02  0.505555D-02 -0.227370D-01  0.485666D-02  0.392353D-02
     14  0.599628D-02 -0.136432D-02  0.171124D-01  0.317142D-02  0.567460D-02
     15 -0.395325D-02  0.278412D-02 -0.226814D-02  0.276831D-02 -0.329562D-02
     16 -0.148817D-02 -0.612372D-03  0.117309D-02  0.219734D-04 -0.161096D-03
     17 -0.169146D-02 -0.112775D-02 -0.998634D-03 -0.653689D-04 -0.305396D-04
     18 -0.203735D-01  0.154371D-01 -0.444062D-02  0.907196D-03 -0.601798D-03
     19  0.712616D-02 -0.157113D-02 -0.726229D-02 -0.111892D-02  0.211116D-03
     20 -0.784023D-03  0.635090D-02  0.418460D-02  0.149815D-03 -0.105804D-02
     21  0.845420D-02 -0.780392D-02 -0.215139D-01 -0.185543D-03  0.266208D-03
                6             7             8             9            10 
      6  0.214743D+00
      7  0.961812D-01  0.264451D+00
      8 -0.820264D-01 -0.137044D+00  0.192179D+00
      9 -0.201559D+00 -0.156229D-01  0.364440D-01  0.575554D+00
     10 -0.207989D-02 -0.649519D-02  0.419571D-02 -0.349744D-01  0.411249D+00
     11  0.219889D-02  0.575444D-02 -0.180509D-02  0.256166D-01 -0.288709D+00
     12  0.106584D-01 -0.385062D-02  0.187545D-02 -0.198999D-01 -0.128576D-01
     13  0.177861D-01 -0.531826D-01  0.132388D-01 -0.608361D-01 -0.426908D-02
     14 -0.147512D-01  0.130371D-01 -0.401387D-01  0.327239D-01  0.544500D-02
     15 -0.148080D-01 -0.648626D-01  0.357953D-01 -0.305022D+00  0.439815D-03
     16 -0.100423D-02  0.260320D-03  0.109201D-02  0.721223D-03 -0.221772D+00
     17  0.856238D-03  0.116198D-02  0.704723D-03 -0.106759D-02  0.158678D+00
     18  0.167797D-02  0.211840D-02 -0.213336D-02 -0.868745D-02 -0.556899D-01
     19  0.103846D-02 -0.448396D-03 -0.208340D-03 -0.406230D-03 -0.129189D+00
     20 -0.667461D-03 -0.662713D-04 -0.623745D-03  0.410403D-03  0.945737D-01
     21  0.157913D-02  0.243050D-02 -0.175345D-02  0.131250D-02  0.116303D+00
               11            12            13            14            15 
     11  0.255445D+00
     12  0.321741D-01  0.480204D+00
     13  0.556048D-02  0.274571D-02  0.577123D-01
     14 -0.142036D-02 -0.213947D-02 -0.280134D-01  0.363999D-01
     15 -0.380540D-03  0.194070D-02  0.646740D-01 -0.341512D-01  0.319887D+00
     16  0.158613D+00 -0.569895D-01  0.648904D-03  0.728018D-03  0.240302D-03
     17 -0.129093D+00  0.407529D-01  0.617449D-03  0.110405D-02 -0.249350D-03
     18  0.397615D-01 -0.643788D-01 -0.196747D-02  0.143474D-02  0.268732D-03
     19  0.944648D-01  0.114128D+00  0.165775D-05 -0.364436D-03  0.693442D-03
     20 -0.897848D-01 -0.958823D-01 -0.382395D-03 -0.255119D-03 -0.502728D-03
     21 -0.975418D-01 -0.189072D+00  0.334847D-03 -0.229192D-03  0.209240D-05
               16            17            18            19            20 
     16  0.226772D+00
     17 -0.164342D+00  0.130401D+00
     18  0.619247D-01 -0.443162D-01  0.655617D-01
     19 -0.444337D-02  0.564157D-02  0.130806D-01  0.128072D+00
     20  0.468269D-02 -0.195813D-02 -0.958196D-02 -0.981735D-01  0.873289D-01
     21 -0.606561D-02  0.502272D-02  0.999841D-02 -0.121272D+00  0.102039D+00
               21 
     21  0.197694D+00
 Leave Link  716 at Wed Aug  3 22:52:39 2016, MaxMem=    33554432 cpu:         0.1
 (Enter /home/proyectos/fulerenos/M3C-v2.0/M3C-deps_CCC/g09-AM64L-G09RevC.01/l103.exe)

 GradGradGradGradGradGradGradGradGradGradGradGradGradGradGradGradGradGrad
 Berny optimization.
 Search for a local minimum.
 Step number   1 out of a maximum of    2
 All quantities printed in internal units (Hartrees-Bohrs-Radians)
 Second derivative matrix not updated -- analytic derivatives used.
 ITU=  0
     Eigenvalues ---    0.00414   0.01000   0.01300   0.03928   0.04903
     Eigenvalues ---    0.06367   0.09056   0.11458   0.12991   0.29736
     Eigenvalues ---    0.34064   0.57011   0.74213   0.86833   0.94124
 Angle between quadratic step and forces=  68.36 degrees.
 ClnCor:  largest displacement from symmetrization is 1.37D-12 for atom     5.
 Linear search not attempted -- first point.
 ClnCor:  largest displacement from symmetrization is 4.08D-15 for atom     7.
 B after Tr=    -0.000093    0.000069   -0.000038
         Rot=    1.000000   -0.000012   -0.000015    0.000001 Ang=  -0.00 deg.
 Variable       Old X    -DE/DX   Delta X   Delta X   Delta X     New X
                                 (Linear)    (Quad)   (Total)
    X1       -0.81861  -0.00001   0.00000  -0.00006  -0.00010  -0.81871
    Y1        1.70596   0.00001   0.00000   0.00006   0.00009   1.70605
    Z1        1.73095   0.00001   0.00000   0.00015   0.00018   1.73113
    X2        3.40532  -0.00000   0.00000  -0.00020  -0.00031   3.40501
    Y2       -1.61605  -0.00000   0.00000   0.00014   0.00021  -1.61583
    Z2       -0.26579  -0.00001   0.00000  -0.00024  -0.00042  -0.26621
    X3        1.77918   0.00001   0.00000   0.00001  -0.00002   1.77916
    Y3       -0.26365  -0.00001   0.00000  -0.00001   0.00001  -0.26364
    Z3        1.97017   0.00000   0.00000   0.00002  -0.00008   1.97009
    X4       -1.45556  -0.00002   0.00000   0.00013  -0.00000  -1.45556
    Y4        2.03755   0.00002   0.00000  -0.00010   0.00000   2.03756
    Z4       -1.34947  -0.00002   0.00000   0.00004   0.00010  -1.34937
    X5        2.22837  -0.00001   0.00000  -0.00006  -0.00003   2.22834
    Y5       -0.50663   0.00001   0.00000   0.00005   0.00002  -0.50661
    Z5        3.96023   0.00001   0.00000   0.00005  -0.00007   3.96016
    X6       -3.03791   0.00001   0.00000   0.00024   0.00009  -3.03782
    Y6        3.21987  -0.00001   0.00000  -0.00020  -0.00008   3.21979
    Z6       -1.84258  -0.00000   0.00000  -0.00037  -0.00024  -1.84281
    X7       -0.31074   0.00001   0.00000   0.00054   0.00037  -0.31037
    Y7        1.09414  -0.00001   0.00000  -0.00039  -0.00025   1.09388
    Z7       -2.75011   0.00001   0.00000   0.00054   0.00053  -2.74958
         Item               Value     Threshold  Converged?
 Maximum Force            0.000022     0.000450     YES
 RMS     Force            0.000011     0.000300     YES
 Maximum Displacement     0.000532     0.001800     YES
 RMS     Displacement     0.000212     0.001200     YES
 Predicted change in Energy=-5.796160D-09
 Optimization completed.
    -- Stationary point found.
 GradGradGradGradGradGradGradGradGradGradGradGradGradGradGradGradGradGrad

 Leave Link  103 at Wed Aug  3 22:52:39 2016, MaxMem=    33554432 cpu:         0.1
 (Enter /home/proyectos/fulerenos/M3C-v2.0/M3C-deps_CCC/g09-AM64L-G09RevC.01/l9999.exe)
 1\1\GINC-DEPAZ29\Freq\UB3LYP\6-311++G(3df,2p)\C2H3S2(2)\NAGUIRRE\03-Au
 g-2016\0\\#p b3lyp/6-311++G(3df,2p) freq\\b3lyp opt\\0,2\S,-0.43319099
 99,0.9027550001,0.915979\S,1.802016,-0.855176,-0.14065\C,0.9415010588,
 -0.1395186742,1.042567921\C,-0.7702493541,1.0782251899,-0.714108103\H,
 1.179203883,-0.2680973141,2.095663144\H,-1.6075927372,1.7038812997,-0.
 975050235\H,-0.1644376079,0.5789928332,-1.455294717\\Version=EM64L-G09
 RevE.01\State=2-A"\HF=-874.4237912\S2=0.767533\S2-1=0.\S2A=0.750101\RM
 SD=6.246e-09\RMSF=1.113e-05\ZeroPoint=0.0417363\Thermal=0.0467774\Dipo
 le=-0.685047,0.5324159,0.1969351\DipoleDeriv=-0.24578,0.3071299,0.0023
 062,0.318945,-0.0868079,-0.004416,0.2382233,-0.1843733,0.1036543,-0.53
 72607,0.3180001,0.064411,0.3391866,-0.3860544,-0.0543048,0.4874483,-0.
 3769971,-0.2278779,0.724783,-0.713026,-0.17612,-0.7265682,0.3632759,0.
 1488392,-0.4465215,0.3551011,0.0910255,-0.2111347,-0.0635196,0.0767084
 ,-0.0806706,-0.2401148,-0.0440758,-0.2657516,0.2171523,-0.0111675,0.08
 66655,0.0499361,0.0263992,0.049652,0.1109588,-0.031214,0.0207263,-0.02
 68867,-0.0707757,0.0945202,0.054012,-0.0112329,0.0537233,0.1252785,0.0
 038613,-0.0169959,0.0082573,0.0720761,0.0882067,0.0474676,0.0175281,0.
 0457319,0.1134638,-0.01869,-0.0171289,0.0077463,0.0430651\Polar=84.831
 2169,-29.4435042,68.689849,0.5391619,0.6762274,67.9110234\PG=CS [SG(C2
 H3S2)]\NImag=0\\0.18146633,-0.11826186,0.11338377,0.03805609,-0.015119
 79,0.30166430,-0.02751379,0.03057551,0.01830540,0.12404051,0.03059036,
 -0.01272525,-0.01514822,-0.09272265,0.08728013,0.01860200,-0.01537447,
 -0.01229122,-0.13052361,0.10976434,0.21474312,-0.10379938,0.05731687,-
 0.01639397,-0.10078537,0.05984012,0.09618120,0.26445064,0.05817980,-0.
 07137141,0.01179840,0.06054631,-0.07894473,-0.08202639,-0.13704426,0.1
 9217897,0.00083645,-0.00134495,-0.04169791,0.11028197,-0.09278244,-0.2
 0155934,-0.01562293,0.03644403,0.57555406,-0.05002333,0.02749743,-0.01
 114129,0.00049893,-0.00168138,-0.00207989,-0.00649519,0.00419571,-0.03
 497439,0.41124917,0.02597090,-0.03314594,-0.00182872,-0.00165503,-0.00
 019617,0.00219889,0.00575444,-0.00180509,0.02561663,-0.28870861,0.2554
 4533,-0.04162196,0.02142190,-0.21945255,-0.00155371,0.00179753,0.01065
 839,-0.00385062,0.00187545,-0.01989985,-0.01285759,0.03217407,0.480204
 09,-0.00576782,0.00505555,-0.02273703,0.00485666,0.00392353,0.01778608
 ,-0.05318262,0.01323877,-0.06083609,-0.00426908,0.00556048,0.00274571,
 0.05771229,0.00599628,-0.00136432,0.01711236,0.00317142,0.00567460,-0.
 01475116,0.01303711,-0.04013872,0.03272392,0.00544500,-0.00142036,-0.0
 0213947,-0.02801339,0.03639986,-0.00395325,0.00278412,-0.00226814,0.00
 276831,-0.00329562,-0.01480804,-0.06486258,0.03579533,-0.30502200,0.00
 043982,-0.00038054,0.00194070,0.06467396,-0.03415121,0.31988665,-0.001
 48817,-0.00061237,0.00117309,0.00002197,-0.00016110,-0.00100423,0.0002
 6032,0.00109201,0.00072122,-0.22177177,0.15861307,-0.05698948,0.000648
 90,0.00072802,0.00024030,0.22677210,-0.00169146,-0.00112775,-0.0009986
 3,-0.00006537,-0.00003054,0.00085624,0.00116198,0.00070472,-0.00106759
 ,0.15867815,-0.12909299,0.04075286,0.00061745,0.00110405,-0.00024935,-
 0.16434231,0.13040064,-0.02037355,0.01543712,-0.00444062,0.00090720,-0
 .00060180,0.00167797,0.00211840,-0.00213336,-0.00868745,-0.05568986,0.
 03976151,-0.06437878,-0.00196747,0.00143474,0.00026873,0.06192471,-0.0
 4431624,0.06556174,0.00712616,-0.00157113,-0.00726229,-0.00111892,0.00
 021112,0.00103846,-0.00044840,-0.00020834,-0.00040623,-0.12918873,0.09
 446475,0.11412765,0.00000166,-0.00036444,0.00069344,-0.00444337,0.0056
 4157,0.01308057,0.12807159,-0.00078402,0.00635090,0.00418460,0.0001498
 2,-0.00105804,-0.00066746,-0.00006627,-0.00062375,0.00041040,0.0945737
 1,-0.08978479,-0.09588233,-0.00038239,-0.00025512,-0.00050273,0.004682
 69,-0.00195813,-0.00958196,-0.09817352,0.08732893,0.00845420,-0.007803
 92,-0.02151385,-0.00018554,0.00026621,0.00157913,0.00243050,-0.0017534
 5,0.00131250,0.11630320,-0.09754184,-0.18907200,0.00033485,-0.00022919
 ,0.00000209,-0.00606561,0.00502272,0.00999841,-0.12127160,0.10203947,0
 .19769372\\0.00000615,-0.00000514,-0.00000895,0.00000005,0.00000029,0.
 00000665,-0.00001457,0.00001092,-0.00000370,0.00002206,-0.00001580,0.0
 0002040,0.00001253,-0.00001001,-0.00000901,-0.00001155,0.00000883,0.00
 000032,-0.00001467,0.00001091,-0.00000571\\\@


 Luck is a matter of preparation meeting opportunity.
                                    -- Oprah Winfrey
 Job cpu time:       0 days  0 hours 15 minutes 23.1 seconds.
 File lengths (MBytes):  RWF=     62 Int=      0 D2E=      0 Chk=      4 Scr=      1
 Normal termination of Gaussian 09 at Wed Aug  3 22:52:39 2016.
