 Entering Gaussian System, Link 0=/home/proyectos/fulerenos/M3C-v2.0/M3C-deps_CCC/g09-AM64L-G09RevC.01/g09
 Initial command:
 /home/proyectos/fulerenos/M3C-v2.0/M3C-deps_CCC/g09-AM64L-G09RevC.01/l1.exe "/scratch/naguirre/gaussian/Gau-13306.inp" -scrdir="/scratch/naguirre/gaussian/"
 Entering Link 1 = /home/proyectos/fulerenos/M3C-v2.0/M3C-deps_CCC/g09-AM64L-G09RevC.01/l1.exe PID=     13314.
  
 Copyright (c) 1988,1990,1992,1993,1995,1998,2003,2009,2015,
            Gaussian, Inc.  All Rights Reserved.
  
 This is part of the Gaussian(R) 09 program.  It is based on
 the Gaussian(R) 03 system (copyright 2003, Gaussian, Inc.),
 the Gaussian(R) 98 system (copyright 1998, Gaussian, Inc.),
 the Gaussian(R) 94 system (copyright 1995, Gaussian, Inc.),
 the Gaussian 92(TM) system (copyright 1992, Gaussian, Inc.),
 the Gaussian 90(TM) system (copyright 1990, Gaussian, Inc.),
 the Gaussian 88(TM) system (copyright 1988, Gaussian, Inc.),
 the Gaussian 86(TM) system (copyright 1986, Carnegie Mellon
 University), and the Gaussian 82(TM) system (copyright 1983,
 Carnegie Mellon University). Gaussian is a federally registered
 trademark of Gaussian, Inc.
  
 This software contains proprietary and confidential information,
 including trade secrets, belonging to Gaussian, Inc.
  
 This software is provided under written license and may be
 used, copied, transmitted, or stored only in accord with that
 written license.
  
 The following legend is applicable only to US Government
 contracts under FAR:
  
                    RESTRICTED RIGHTS LEGEND
  
 Use, reproduction and disclosure by the US Government is
 subject to restrictions as set forth in subparagraphs (a)
 and (c) of the Commercial Computer Software - Restricted
 Rights clause in FAR 52.227-19.
  
 Gaussian, Inc.
 340 Quinnipiac St., Bldg. 40, Wallingford CT 06492
  
  
 ---------------------------------------------------------------
 Warning -- This program may not be used in any manner that
 competes with the business of Gaussian, Inc. or will provide
 assistance to any competitor of Gaussian, Inc.  The licensee
 of this program is prohibited from giving any competitor of
 Gaussian, Inc. access to this program.  By using this program,
 the user acknowledges that Gaussian, Inc. is engaged in the
 business of creating and licensing software in the field of
 computational chemistry and represents and warrants to the
 licensee that it is not a competitor of Gaussian, Inc. and that
 it will not use this program in any manner prohibited above.
 ---------------------------------------------------------------
  

 Cite this work as:
 Gaussian 09, Revision E.01,
 M. J. Frisch, G. W. Trucks, H. B. Schlegel, G. E. Scuseria, 
 M. A. Robb, J. R. Cheeseman, G. Scalmani, V. Barone, B. Mennucci, 
 G. A. Petersson, H. Nakatsuji, M. Caricato, X. Li, H. P. Hratchian, 
 A. F. Izmaylov, J. Bloino, G. Zheng, J. L. Sonnenberg, M. Hada, 
 M. Ehara, K. Toyota, R. Fukuda, J. Hasegawa, M. Ishida, T. Nakajima, 
 Y. Honda, O. Kitao, H. Nakai, T. Vreven, J. A. Montgomery, Jr., 
 J. E. Peralta, F. Ogliaro, M. Bearpark, J. J. Heyd, E. Brothers, 
 K. N. Kudin, V. N. Staroverov, T. Keith, R. Kobayashi, J. Normand, 
 K. Raghavachari, A. Rendell, J. C. Burant, S. S. Iyengar, J. Tomasi, 
 M. Cossi, N. Rega, J. M. Millam, M. Klene, J. E. Knox, J. B. Cross, 
 V. Bakken, C. Adamo, J. Jaramillo, R. Gomperts, R. E. Stratmann, 
 O. Yazyev, A. J. Austin, R. Cammi, C. Pomelli, J. W. Ochterski, 
 R. L. Martin, K. Morokuma, V. G. Zakrzewski, G. A. Voth, 
 P. Salvador, J. J. Dannenberg, S. Dapprich, A. D. Daniels, 
 O. Farkas, J. B. Foresman, J. V. Ortiz, J. Cioslowski, 
 and D. J. Fox, Gaussian, Inc., Wallingford CT, 2013.
 
 ******************************************
 Gaussian 09:  EM64L-G09RevE.01 30-Nov-2015
                 3-Aug-2016 
 ******************************************
 %NProcShared=4
 Will use up to    4 processors via shared memory.
 ------------------------------
 #p b3lyp/6-311++G(3df,2p) freq
 ------------------------------
 1/10=4,30=1,38=1/1,3;
 2/12=2,17=6,18=5,40=1/2;
 3/5=4,6=6,7=1216,11=2,16=1,25=1,30=1,71=2,74=-5,140=1/1,2,3;
 4//1;
 5/5=2,38=5,98=1/2;
 8/6=4,10=90,11=11/1;
 11/6=1,8=1,9=11,15=111,16=1/1,2,10;
 10/6=1/2;
 6/7=2,8=2,9=2,10=2,18=1,28=1/1;
 7/8=1,10=1,25=1/1,2,3,16;
 1/10=4,30=1/3;
 99//99;
 Leave Link    1 at Wed Aug  3 20:10:46 2016, MaxMem=           0 cpu:         0.3
 (Enter /home/proyectos/fulerenos/M3C-v2.0/M3C-deps_CCC/g09-AM64L-G09RevC.01/l101.exe)
 ---------
 b3lyp opt
 ---------
 Symbolic Z-matrix:
 Charge =  0 Multiplicity = 2
 S                    -0.27189  -0.56039  -0.40031 
 S                     1.75755  -0.89699  -0.60253 
 C                    -0.36444   0.76758   0.81921 
 C                    -1.21129   1.74206   0.675 
 H                     0.28771   0.64406   1.67648 
 H                    -1.94837   2.10496  -0.01976 
 H                     2.03182   0.03018  -1.54181 
 
 NAtoms=      7 NQM=        7 NQMF=       0 NMMI=      0 NMMIF=      0
                NMic=       0 NMicF=      0.
                    Isotopes and Nuclear Properties:
 (Nuclear quadrupole moments (NQMom) in fm**2, nuclear magnetic moments (NMagM)
  in nuclear magnetons)

  Atom         1           2           3           4           5           6           7
 IAtWgt=          32          32          12          12           1           1           1
 AtmWgt=  31.9720718  31.9720718  12.0000000  12.0000000   1.0078250   1.0078250   1.0078250
 NucSpn=           0           0           0           0           1           1           1
 AtZEff=   0.0000000   0.0000000   0.0000000   0.0000000   0.0000000   0.0000000   0.0000000
 NQMom=    0.0000000   0.0000000   0.0000000   0.0000000   0.0000000   0.0000000   0.0000000
 NMagM=    0.0000000   0.0000000   0.0000000   0.0000000   2.7928460   2.7928460   2.7928460
 AtZNuc=  16.0000000  16.0000000   6.0000000   6.0000000   1.0000000   1.0000000   1.0000000
 Leave Link  101 at Wed Aug  3 20:10:46 2016, MaxMem=    33554432 cpu:         0.2
 (Enter /home/proyectos/fulerenos/M3C-v2.0/M3C-deps_CCC/g09-AM64L-G09RevC.01/l103.exe)

 GradGradGradGradGradGradGradGradGradGradGradGradGradGradGradGradGradGrad
 Berny optimization.
 Initialization pass.
 Trust Radius=3.00D-01 FncErr=1.00D-07 GrdErr=1.00D-07
 Number of steps in this run=      2 maximum allowed number of steps=      2.
 GradGradGradGradGradGradGradGradGradGradGradGradGradGradGradGradGradGrad

 Leave Link  103 at Wed Aug  3 20:10:46 2016, MaxMem=    33554432 cpu:         0.1
 (Enter /home/proyectos/fulerenos/M3C-v2.0/M3C-deps_CCC/g09-AM64L-G09RevC.01/l202.exe)
                          Input orientation:                          
 ---------------------------------------------------------------------
 Center     Atomic      Atomic             Coordinates (Angstroms)
 Number     Number       Type             X           Y           Z
 ---------------------------------------------------------------------
      1         16           0       -0.271886   -0.560388   -0.400309
      2         16           0        1.757553   -0.896992   -0.602530
      3          6           0       -0.364442    0.767575    0.819214
      4          6           0       -1.211289    1.742064    0.675003
      5          1           0        0.287707    0.644055    1.676483
      6          1           0       -1.948367    2.104964   -0.019764
      7          1           0        2.031821    0.030180   -1.541806
 ---------------------------------------------------------------------
                    Distance matrix (angstroms):
                    1          2          3          4          5
     1  S    0.000000
     2  S    2.067080   0.000000
     3  C    1.805350   3.048771   0.000000
     4  C    2.709254   4.172617   1.299067   0.000000
     5  H    2.465135   3.119162   1.084189   2.110823   0.000000
     6  H    3.171672   4.804706   2.236361   1.075956   3.164101
     7  H    2.637964   1.348002   3.443870   4.285155   3.711625
                    6          7
     6  H    0.000000
     7  H    4.739540   0.000000
 Stoichiometry    C2H3S2(2)
 Framework group  C1[X(C2H3S2)]
 Deg. of freedom    15
 Full point group                 C1      NOp   1
 Largest Abelian subgroup         C1      NOp   1
 Largest concise Abelian subgroup C1      NOp   1
                         Standard orientation:                         
 ---------------------------------------------------------------------
 Center     Atomic      Atomic             Coordinates (Angstroms)
 Number     Number       Type             X           Y           Z
 ---------------------------------------------------------------------
      1         16           0       -0.077032    0.768673   -0.072152
      2         16           0        1.671704   -0.329179    0.025101
      3          6           0       -1.350345   -0.481094   -0.347915
      4          6           0       -2.493204   -0.409519    0.265538
      5          1           0       -1.098495   -1.231096   -1.089221
      6          1           0       -3.004514    0.186973    1.000685
      7          1           0        1.649556   -0.644106    1.335613
 ---------------------------------------------------------------------
 Rotational constants (GHZ):     14.2096564      2.4597473      2.2154035
 Leave Link  202 at Wed Aug  3 20:10:46 2016, MaxMem=    33554432 cpu:         0.0
 (Enter /home/proyectos/fulerenos/M3C-v2.0/M3C-deps_CCC/g09-AM64L-G09RevC.01/l301.exe)
 Standard basis: 6-311++G(3df,2p) (5D, 7F)
 Ernie: Thresh=  0.10000D-02 Tol=  0.10000D-05 Strict=F.
 There are   226 symmetry adapted cartesian basis functions of A   symmetry.
 There are   202 symmetry adapted basis functions of A   symmetry.
   202 basis functions,   296 primitive gaussians,   226 cartesian basis functions
    24 alpha electrons       23 beta electrons
       nuclear repulsion energy       186.8881345031 Hartrees.
 IExCor=  402 DFT=T Ex+Corr=B3LYP ExCW=0 ScaHFX=  0.200000
 ScaDFX=  0.800000  0.720000  1.000000  0.810000 ScalE2=  1.000000  1.000000
 IRadAn=      0 IRanWt=     -1 IRanGd=            0 ICorTp=0 IEmpDi=  4
 NAtoms=    7 NActive=    7 NUniq=    7 SFac= 1.00D+00 NAtFMM=   60 NAOKFM=F Big=F
 Integral buffers will be    131072 words long.
 Raffenetti 2 integral format.
 Two-electron integral symmetry is turned on.
 Leave Link  301 at Wed Aug  3 20:10:47 2016, MaxMem=    33554432 cpu:         0.2
 (Enter /home/proyectos/fulerenos/M3C-v2.0/M3C-deps_CCC/g09-AM64L-G09RevC.01/l302.exe)
 NPDir=0 NMtPBC=     1 NCelOv=     1 NCel=       1 NClECP=     1 NCelD=      1
         NCelK=      1 NCelE2=     1 NClLst=     1 CellRange=     0.0.
 One-electron integrals computed using PRISM.
 NBasis=   202 RedAO= T EigKep=  3.52D-05  NBF=   202
 NBsUse=   202 1.00D-06 EigRej= -1.00D+00 NBFU=   202
 Precomputing XC quadrature grid using
 IXCGrd= 4 IRadAn=           0 IRanWt=          -1 IRanGd=           0 AccXCQ= 0.00D+00.
 Generated NRdTot=       0 NPtTot=           0 NUsed=           0 NTot=          32
 NSgBfM=   225   225   225   225   225 MxSgAt=     7 MxSgA2=     7.
 Leave Link  302 at Wed Aug  3 20:10:47 2016, MaxMem=    33554432 cpu:         1.3
 (Enter /home/proyectos/fulerenos/M3C-v2.0/M3C-deps_CCC/g09-AM64L-G09RevC.01/l303.exe)
 DipDrv:  MaxL=1.
 Leave Link  303 at Wed Aug  3 20:10:47 2016, MaxMem=    33554432 cpu:         0.1
 (Enter /home/proyectos/fulerenos/M3C-v2.0/M3C-deps_CCC/g09-AM64L-G09RevC.01/l401.exe)
 ExpMin= 3.60D-02 ExpMax= 9.34D+04 ExpMxC= 3.17D+03 IAcc=3 IRadAn=         5 AccDes= 0.00D+00
 Harris functional with IExCor=  402 and IRadAn=       5 diagonalized for initial guess.
 HarFok:  IExCor=  402 AccDes= 0.00D+00 IRadAn=         5 IDoV= 1 UseB2=F ITyADJ=14
 ICtDFT=  3500011 ScaDFX=  1.000000  1.000000  1.000000  1.000000
 FoFCou: FMM=F IPFlag=           0 FMFlag=      100000 FMFlg1=           0
         NFxFlg=           0 DoJE=T BraDBF=F KetDBF=T FulRan=T
         wScrn=  0.000000 ICntrl=     500 IOpCl=  0 I1Cent=   200000004 NGrid=           0
         NMat0=    1 NMatS0=      1 NMatT0=    0 NMatD0=    1 NMtDS0=    0 NMtDT0=    0
 Petite list used in FoFCou.
 Harris En= -874.293083505794    
 JPrj=0 DoOrth=F DoCkMO=F.
 Initial guess <Sx>= 0.0000 <Sy>= 0.0000 <Sz>= 0.5000 <S**2>= 0.7500 S= 0.5000
 Leave Link  401 at Wed Aug  3 20:10:49 2016, MaxMem=    33554432 cpu:         6.9
 (Enter /home/proyectos/fulerenos/M3C-v2.0/M3C-deps_CCC/g09-AM64L-G09RevC.01/l502.exe)
 UHF open shell SCF:
 Using DIIS extrapolation, IDIIS=  1040.
 Integral symmetry usage will be decided dynamically.
 IVT=      174774 IEndB=      174774 NGot=    33554432 MDV=    33447601
 LenX=    33447601 LenY=    33396084
 Requested convergence on RMS density matrix=1.00D-08 within 128 cycles.
 Requested convergence on MAX density matrix=1.00D-06.
 Requested convergence on             energy=1.00D-06.
 No special actions if energy rises.
 Fock matrices will be formed incrementally for  20 cycles.

 Cycle   1  Pass 1  IDiag  1:
 FoFJK:  IHMeth= 1 ICntrl=       0 DoSepK=F KAlg= 0 I1Cent=   0 FoldK=F
 IRaf= 960000000 NMat=   1 IRICut=       1 DoRegI=T DoRafI=F ISym2E= 0.
 FoFCou: FMM=F IPFlag=           0 FMFlag=      100000 FMFlg1=           0
         NFxFlg=           0 DoJE=F BraDBF=F KetDBF=F FulRan=T
         wScrn=  0.000000 ICntrl=       0 IOpCl=  1 I1Cent=           0 NGrid=           0
         NMat0=    1 NMatS0=      1 NMatT0=    0 NMatD0=    1 NMtDS0=    0 NMtDT0=    0
 Symmetry not used in FoFCou.
 E= -874.163324805468    
 DIIS: error= 2.50D-02 at cycle   1 NSaved=   1.
 NSaved= 1 IEnMin= 1 EnMin= -874.163324805468     IErMin= 1 ErrMin= 2.50D-02
 ErrMax= 2.50D-02  0.00D+00 EMaxC= 1.00D-01 BMatC= 8.26D-01 BMatP= 8.26D-01
 IDIUse=3 WtCom= 7.50D-01 WtEn= 2.50D-01
 Coeff-Com:  0.100D+01
 Coeff-En:   0.100D+01
 Coeff:      0.100D+01
 Gap=     0.289 Goal=   None    Shift=    0.000
 Gap=     0.201 Goal=   None    Shift=    0.000
 GapD=    0.201 DampG=1.000 DampE=0.500 DampFc=0.5000 IDamp=-1.
 Damping current iteration by 5.00D-01
 RMSDP=9.55D-03 MaxDP=5.49D-01              OVMax= 8.08D-01

 Cycle   2  Pass 1  IDiag  1:
 RMSU=  4.57D-03    CP:  9.25D-01
 E= -873.923320854377     Delta-E=        0.240003951091 Rises=F Damp=T
 DIIS: error= 2.16D-02 at cycle   2 NSaved=   2.
 NSaved= 2 IEnMin= 1 EnMin= -874.163324805468     IErMin= 2 ErrMin= 2.16D-02
 ErrMax= 2.16D-02  0.00D+00 EMaxC= 1.00D-01 BMatC= 4.86D-01 BMatP= 8.26D-01
 IDIUse=3 WtCom= 7.84D-01 WtEn= 2.16D-01
 Coeff-Com:  0.417D+00 0.583D+00
 Coeff-En:   0.701D+00 0.299D+00
 Coeff:      0.479D+00 0.521D+00
 Gap=     0.168 Goal=   None    Shift=    0.000
 Gap=    -0.006 Goal=   None    Shift=    0.000
 RMSDP=3.89D-03 MaxDP=2.01D-01 DE= 2.40D-01 OVMax= 7.87D-01

 Cycle   3  Pass 1  IDiag  1:
 RMSU=  2.13D-03    CP:  9.58D-01  3.01D-01
 E= -874.346161998627     Delta-E=       -0.422841144250 Rises=F Damp=F
 DIIS: error= 1.13D-02 at cycle   3 NSaved=   3.
 NSaved= 3 IEnMin= 3 EnMin= -874.346161998627     IErMin= 3 ErrMin= 1.13D-02
 ErrMax= 1.13D-02  0.00D+00 EMaxC= 1.00D-01 BMatC= 8.31D-02 BMatP= 4.86D-01
 IDIUse=3 WtCom= 8.87D-01 WtEn= 1.13D-01
 Coeff-Com:  0.544D-01 0.277D+00 0.668D+00
 Coeff-En:   0.000D+00 0.000D+00 0.100D+01
 Coeff:      0.483D-01 0.246D+00 0.706D+00
 Gap=     0.169 Goal=   None    Shift=    0.000
 Gap=     0.119 Goal=   None    Shift=    0.000
 RMSDP=1.54D-03 MaxDP=9.87D-02 DE=-4.23D-01 OVMax= 2.03D-01

 Cycle   4  Pass 1  IDiag  1:
 RMSU=  1.40D-03    CP:  9.46D-01  4.29D-01  9.19D-01
 E= -874.377416669674     Delta-E=       -0.031254671047 Rises=F Damp=F
 DIIS: error= 5.64D-03 at cycle   4 NSaved=   4.
 NSaved= 4 IEnMin= 4 EnMin= -874.377416669674     IErMin= 4 ErrMin= 5.64D-03
 ErrMax= 5.64D-03  0.00D+00 EMaxC= 1.00D-01 BMatC= 3.24D-02 BMatP= 8.31D-02
 IDIUse=3 WtCom= 9.44D-01 WtEn= 5.64D-02
 Coeff-Com: -0.273D-01 0.985D-01 0.425D+00 0.504D+00
 Coeff-En:   0.000D+00 0.000D+00 0.555D-01 0.944D+00
 Coeff:     -0.258D-01 0.930D-01 0.404D+00 0.529D+00
 Gap=     0.181 Goal=   None    Shift=    0.000
 Gap=     0.122 Goal=   None    Shift=    0.000
 RMSDP=5.49D-04 MaxDP=1.66D-02 DE=-3.13D-02 OVMax= 4.32D-02

 Cycle   5  Pass 1  IDiag  1:
 RMSU=  4.71D-04    CP:  9.41D-01  4.36D-01  1.04D+00  9.29D-01
 E= -874.385863022168     Delta-E=       -0.008446352494 Rises=F Damp=F
 DIIS: error= 1.85D-03 at cycle   5 NSaved=   5.
 NSaved= 5 IEnMin= 5 EnMin= -874.385863022168     IErMin= 5 ErrMin= 1.85D-03
 ErrMax= 1.85D-03  0.00D+00 EMaxC= 1.00D-01 BMatC= 4.28D-03 BMatP= 3.24D-02
 IDIUse=3 WtCom= 9.81D-01 WtEn= 1.85D-02
 Coeff-Com: -0.214D-01 0.198D-01 0.112D+00 0.272D+00 0.617D+00
 Coeff-En:   0.000D+00 0.000D+00 0.000D+00 0.000D+00 0.100D+01
 Coeff:     -0.210D-01 0.194D-01 0.110D+00 0.267D+00 0.624D+00
 Gap=     0.185 Goal=   None    Shift=    0.000
 Gap=     0.132 Goal=   None    Shift=    0.000
 RMSDP=2.60D-04 MaxDP=1.06D-02 DE=-8.45D-03 OVMax= 3.18D-02

 Cycle   6  Pass 1  IDiag  1:
 RMSU=  2.27D-04    CP:  9.41D-01  4.41D-01  1.07D+00  1.00D+00  1.02D+00
 E= -874.387335398177     Delta-E=       -0.001472376009 Rises=F Damp=F
 DIIS: error= 8.05D-04 at cycle   6 NSaved=   6.
 NSaved= 6 IEnMin= 6 EnMin= -874.387335398177     IErMin= 6 ErrMin= 8.05D-04
 ErrMax= 8.05D-04  0.00D+00 EMaxC= 1.00D-01 BMatC= 8.72D-04 BMatP= 4.28D-03
 IDIUse=3 WtCom= 9.92D-01 WtEn= 8.05D-03
 Coeff-Com: -0.250D-02-0.553D-02-0.216D-01 0.221D-01 0.302D+00 0.706D+00
 Coeff-En:   0.000D+00 0.000D+00 0.000D+00 0.000D+00 0.000D+00 0.100D+01
 Coeff:     -0.248D-02-0.549D-02-0.214D-01 0.219D-01 0.299D+00 0.708D+00
 Gap=     0.190 Goal=   None    Shift=    0.000
 Gap=     0.134 Goal=   None    Shift=    0.000
 RMSDP=1.58D-04 MaxDP=7.12D-03 DE=-1.47D-03 OVMax= 1.62D-02

 Cycle   7  Pass 1  IDiag  1:
 RMSU=  1.13D-04    CP:  9.40D-01  4.38D-01  1.07D+00  1.05D+00  1.20D+00
                    CP:  1.17D+00
 E= -874.387723056345     Delta-E=       -0.000387658168 Rises=F Damp=F
 DIIS: error= 4.68D-04 at cycle   7 NSaved=   7.
 NSaved= 7 IEnMin= 7 EnMin= -874.387723056345     IErMin= 7 ErrMin= 4.68D-04
 ErrMax= 4.68D-04  0.00D+00 EMaxC= 1.00D-01 BMatC= 2.58D-04 BMatP= 8.72D-04
 IDIUse=3 WtCom= 9.95D-01 WtEn= 4.68D-03
 Coeff-Com:  0.318D-02-0.307D-02-0.241D-01-0.384D-01-0.616D-02 0.365D+00
 Coeff-Com:  0.704D+00
 Coeff-En:   0.000D+00 0.000D+00 0.000D+00 0.000D+00 0.000D+00 0.000D+00
 Coeff-En:   0.100D+01
 Coeff:      0.317D-02-0.306D-02-0.239D-01-0.382D-01-0.613D-02 0.363D+00
 Coeff:      0.705D+00
 Gap=     0.190 Goal=   None    Shift=    0.000
 Gap=     0.137 Goal=   None    Shift=    0.000
 RMSDP=9.07D-05 MaxDP=3.79D-03 DE=-3.88D-04 OVMax= 1.25D-02

 Cycle   8  Pass 1  IDiag  1:
 RMSU=  5.86D-05    CP:  9.41D-01  4.37D-01  1.08D+00  1.06D+00  1.28D+00
                    CP:  1.40D+00  1.00D+00
 E= -874.387854123279     Delta-E=       -0.000131066935 Rises=F Damp=F
 DIIS: error= 1.91D-04 at cycle   8 NSaved=   8.
 NSaved= 8 IEnMin= 8 EnMin= -874.387854123279     IErMin= 8 ErrMin= 1.91D-04
 ErrMax= 1.91D-04  0.00D+00 EMaxC= 1.00D-01 BMatC= 6.40D-05 BMatP= 2.58D-04
 IDIUse=3 WtCom= 9.98D-01 WtEn= 1.91D-03
 Coeff-Com:  0.146D-02 0.687D-03-0.296D-02-0.149D-01-0.705D-01-0.267D-02
 Coeff-Com:  0.348D+00 0.741D+00
 Coeff-En:   0.000D+00 0.000D+00 0.000D+00 0.000D+00 0.000D+00 0.000D+00
 Coeff-En:   0.000D+00 0.100D+01
 Coeff:      0.145D-02 0.686D-03-0.296D-02-0.149D-01-0.704D-01-0.267D-02
 Coeff:      0.348D+00 0.741D+00
 Gap=     0.190 Goal=   None    Shift=    0.000
 Gap=     0.137 Goal=   None    Shift=    0.000
 RMSDP=4.83D-05 MaxDP=2.13D-03 DE=-1.31D-04 OVMax= 6.09D-03

 Cycle   9  Pass 1  IDiag  1:
 RMSU=  2.90D-05    CP:  9.41D-01  4.37D-01  1.08D+00  1.07D+00  1.30D+00
                    CP:  1.48D+00  1.22D+00  9.57D-01
 E= -874.387896873606     Delta-E=       -0.000042750326 Rises=F Damp=F
 DIIS: error= 8.92D-05 at cycle   9 NSaved=   9.
 NSaved= 9 IEnMin= 9 EnMin= -874.387896873606     IErMin= 9 ErrMin= 8.92D-05
 ErrMax= 8.92D-05  0.00D+00 EMaxC= 1.00D-01 BMatC= 8.50D-06 BMatP= 6.40D-05
 IDIUse=1 WtCom= 1.00D+00 WtEn= 0.00D+00
 Coeff-Com: -0.185D-03 0.967D-03 0.390D-02 0.250D-02-0.149D-01-0.590D-01
 Coeff-Com: -0.723D-01 0.107D+00 0.103D+01
 Coeff:     -0.185D-03 0.967D-03 0.390D-02 0.250D-02-0.149D-01-0.590D-01
 Coeff:     -0.723D-01 0.107D+00 0.103D+01
 Gap=     0.190 Goal=   None    Shift=    0.000
 Gap=     0.137 Goal=   None    Shift=    0.000
 RMSDP=2.89D-05 MaxDP=9.89D-04 DE=-4.28D-05 OVMax= 4.63D-03

 Cycle  10  Pass 1  IDiag  1:
 RMSU=  1.22D-05    CP:  9.41D-01  4.37D-01  1.08D+00  1.08D+00  1.32D+00
                    CP:  1.54D+00  1.30D+00  1.21D+00  1.31D+00
 E= -874.387909792479     Delta-E=       -0.000012918874 Rises=F Damp=F
 DIIS: error= 4.74D-05 at cycle  10 NSaved=  10.
 NSaved=10 IEnMin=10 EnMin= -874.387909792479     IErMin=10 ErrMin= 4.74D-05
 ErrMax= 4.74D-05  0.00D+00 EMaxC= 1.00D-01 BMatC= 2.50D-06 BMatP= 8.50D-06
 IDIUse=1 WtCom= 1.00D+00 WtEn= 0.00D+00
 Coeff-Com: -0.575D-03-0.208D-04 0.243D-02 0.604D-02 0.181D-01-0.130D-01
 Coeff-Com: -0.127D+00-0.214D+00 0.284D+00 0.104D+01
 Coeff:     -0.575D-03-0.208D-04 0.243D-02 0.604D-02 0.181D-01-0.130D-01
 Coeff:     -0.127D+00-0.214D+00 0.284D+00 0.104D+01
 Gap=     0.190 Goal=   None    Shift=    0.000
 Gap=     0.137 Goal=   None    Shift=    0.000
 RMSDP=1.73D-05 MaxDP=5.75D-04 DE=-1.29D-05 OVMax= 2.79D-03

 Cycle  11  Pass 1  IDiag  1:
 RMSU=  4.66D-06    CP:  9.41D-01  4.37D-01  1.08D+00  1.08D+00  1.33D+00
                    CP:  1.56D+00  1.35D+00  1.30D+00  1.72D+00  1.31D+00
 E= -874.387913422065     Delta-E=       -0.000003629586 Rises=F Damp=F
 DIIS: error= 1.53D-05 at cycle  11 NSaved=  11.
 NSaved=11 IEnMin=11 EnMin= -874.387913422065     IErMin=11 ErrMin= 1.53D-05
 ErrMax= 1.53D-05  0.00D+00 EMaxC= 1.00D-01 BMatC= 3.46D-07 BMatP= 2.50D-06
 IDIUse=1 WtCom= 1.00D+00 WtEn= 0.00D+00
 Coeff-Com: -0.607D-04-0.144D-03-0.803D-04 0.111D-02 0.575D-02 0.184D-02
 Coeff-Com: -0.156D-01-0.539D-01-0.106D+00 0.262D+00 0.905D+00
 Coeff:     -0.607D-04-0.144D-03-0.803D-04 0.111D-02 0.575D-02 0.184D-02
 Coeff:     -0.156D-01-0.539D-01-0.106D+00 0.262D+00 0.905D+00
 Gap=     0.190 Goal=   None    Shift=    0.000
 Gap=     0.137 Goal=   None    Shift=    0.000
 RMSDP=4.95D-06 MaxDP=2.11D-04 DE=-3.63D-06 OVMax= 6.22D-04

 Cycle  12  Pass 1  IDiag  1:
 RMSU=  2.35D-06    CP:  9.41D-01  4.37D-01  1.08D+00  1.08D+00  1.33D+00
                    CP:  1.57D+00  1.36D+00  1.34D+00  1.76D+00  1.54D+00
                    CP:  1.11D+00
 E= -874.387913777580     Delta-E=       -0.000000355515 Rises=F Damp=F
 DIIS: error= 6.77D-06 at cycle  12 NSaved=  12.
 NSaved=12 IEnMin=12 EnMin= -874.387913777580     IErMin=12 ErrMin= 6.77D-06
 ErrMax= 6.77D-06  0.00D+00 EMaxC= 1.00D-01 BMatC= 6.70D-08 BMatP= 3.46D-07
 IDIUse=1 WtCom= 1.00D+00 WtEn= 0.00D+00
 Coeff-Com:  0.528D-04-0.673D-04-0.419D-03-0.497D-03-0.516D-04 0.255D-02
 Coeff-Com:  0.132D-01 0.152D-01-0.781D-01-0.755D-01 0.289D+00 0.835D+00
 Coeff:      0.528D-04-0.673D-04-0.419D-03-0.497D-03-0.516D-04 0.255D-02
 Coeff:      0.132D-01 0.152D-01-0.781D-01-0.755D-01 0.289D+00 0.835D+00
 Gap=     0.190 Goal=   None    Shift=    0.000
 Gap=     0.137 Goal=   None    Shift=    0.000
 RMSDP=1.52D-06 MaxDP=3.59D-05 DE=-3.56D-07 OVMax= 1.80D-04

 Cycle  13  Pass 1  IDiag  1:
 RMSU=  8.46D-07    CP:  9.41D-01  4.37D-01  1.08D+00  1.08D+00  1.33D+00
                    CP:  1.57D+00  1.36D+00  1.34D+00  1.77D+00  1.57D+00
                    CP:  1.34D+00  1.11D+00
 E= -874.387913834962     Delta-E=       -0.000000057382 Rises=F Damp=F
 DIIS: error= 2.87D-06 at cycle  13 NSaved=  13.
 NSaved=13 IEnMin=13 EnMin= -874.387913834962     IErMin=13 ErrMin= 2.87D-06
 ErrMax= 2.87D-06  0.00D+00 EMaxC= 1.00D-01 BMatC= 9.71D-09 BMatP= 6.70D-08
 IDIUse=1 WtCom= 1.00D+00 WtEn= 0.00D+00
 Coeff-Com:  0.956D-05 0.201D-05-0.302D-04-0.267D-03-0.823D-03 0.173D-03
 Coeff-Com:  0.283D-02 0.970D-02 0.171D-01-0.608D-01-0.143D+00 0.461D-01
 Coeff-Com:  0.113D+01
 Coeff:      0.956D-05 0.201D-05-0.302D-04-0.267D-03-0.823D-03 0.173D-03
 Coeff:      0.283D-02 0.970D-02 0.171D-01-0.608D-01-0.143D+00 0.461D-01
 Coeff:      0.113D+01
 Gap=     0.190 Goal=   None    Shift=    0.000
 Gap=     0.137 Goal=   None    Shift=    0.000
 RMSDP=1.00D-06 MaxDP=2.96D-05 DE=-5.74D-08 OVMax= 1.47D-04

 Cycle  14  Pass 1  IDiag  1:
 RMSU=  3.67D-07    CP:  9.41D-01  4.37D-01  1.08D+00  1.08D+00  1.33D+00
                    CP:  1.57D+00  1.36D+00  1.34D+00  1.77D+00  1.58D+00
                    CP:  1.42D+00  1.40D+00  1.53D+00
 E= -874.387913850165     Delta-E=       -0.000000015204 Rises=F Damp=F
 DIIS: error= 1.35D-06 at cycle  14 NSaved=  14.
 NSaved=14 IEnMin=14 EnMin= -874.387913850165     IErMin=14 ErrMin= 1.35D-06
 ErrMax= 1.35D-06  0.00D+00 EMaxC= 1.00D-01 BMatC= 2.19D-09 BMatP= 9.71D-09
 IDIUse=1 WtCom= 1.00D+00 WtEn= 0.00D+00
 Coeff-Com: -0.437D-06 0.760D-05 0.330D-04-0.428D-04-0.296D-03-0.197D-03
 Coeff-Com: -0.114D-02 0.913D-03 0.174D-01-0.599D-02-0.881D-01-0.126D+00
 Coeff-Com:  0.328D+00 0.876D+00
 Coeff:     -0.437D-06 0.760D-05 0.330D-04-0.428D-04-0.296D-03-0.197D-03
 Coeff:     -0.114D-02 0.913D-03 0.174D-01-0.599D-02-0.881D-01-0.126D+00
 Coeff:      0.328D+00 0.876D+00
 Gap=     0.190 Goal=   None    Shift=    0.000
 Gap=     0.137 Goal=   None    Shift=    0.000
 RMSDP=4.28D-07 MaxDP=1.15D-05 DE=-1.52D-08 OVMax= 6.35D-05

 Cycle  15  Pass 1  IDiag  1:
 RMSU=  1.75D-07    CP:  9.41D-01  4.37D-01  1.08D+00  1.08D+00  1.33D+00
                    CP:  1.57D+00  1.36D+00  1.34D+00  1.77D+00  1.57D+00
                    CP:  1.45D+00  1.47D+00  1.86D+00  1.14D+00
 E= -874.387913852460     Delta-E=       -0.000000002295 Rises=F Damp=F
 DIIS: error= 4.73D-07 at cycle  15 NSaved=  15.
 NSaved=15 IEnMin=15 EnMin= -874.387913852460     IErMin=15 ErrMin= 4.73D-07
 ErrMax= 4.73D-07  0.00D+00 EMaxC= 1.00D-01 BMatC= 3.48D-10 BMatP= 2.19D-09
 IDIUse=1 WtCom= 1.00D+00 WtEn= 0.00D+00
 Coeff-Com: -0.333D-05 0.290D-05 0.216D-04 0.652D-04 0.109D-03-0.137D-03
 Coeff-Com: -0.975D-03-0.149D-02 0.251D-04 0.122D-01 0.106D-01-0.381D-01
 Coeff-Com: -0.169D+00 0.202D+00 0.985D+00
 Coeff:     -0.333D-05 0.290D-05 0.216D-04 0.652D-04 0.109D-03-0.137D-03
 Coeff:     -0.975D-03-0.149D-02 0.251D-04 0.122D-01 0.106D-01-0.381D-01
 Coeff:     -0.169D+00 0.202D+00 0.985D+00
 Gap=     0.190 Goal=   None    Shift=    0.000
 Gap=     0.137 Goal=   None    Shift=    0.000
 RMSDP=1.97D-07 MaxDP=7.03D-06 DE=-2.29D-09 OVMax= 3.33D-05

 Cycle  16  Pass 1  IDiag  1:
 RMSU=  6.20D-08    CP:  9.41D-01  4.37D-01  1.08D+00  1.08D+00  1.33D+00
                    CP:  1.57D+00  1.36D+00  1.34D+00  1.77D+00  1.57D+00
                    CP:  1.45D+00  1.51D+00  1.96D+00  1.41D+00  1.07D+00
 E= -874.387913852854     Delta-E=       -0.000000000394 Rises=F Damp=F
 DIIS: error= 1.54D-07 at cycle  16 NSaved=  16.
 NSaved=16 IEnMin=16 EnMin= -874.387913852854     IErMin=16 ErrMin= 1.54D-07
 ErrMax= 1.54D-07  0.00D+00 EMaxC= 1.00D-01 BMatC= 3.79D-11 BMatP= 3.48D-10
 IDIUse=1 WtCom= 1.00D+00 WtEn= 0.00D+00
 Coeff-Com: -0.888D-06-0.640D-06-0.121D-05 0.174D-04 0.511D-04-0.297D-04
 Coeff-Com: -0.536D-04-0.301D-03-0.195D-02 0.296D-02 0.121D-01 0.587D-02
 Coeff-Com: -0.722D-01-0.643D-01 0.259D+00 0.859D+00
 Coeff:     -0.888D-06-0.640D-06-0.121D-05 0.174D-04 0.511D-04-0.297D-04
 Coeff:     -0.536D-04-0.301D-03-0.195D-02 0.296D-02 0.121D-01 0.587D-02
 Coeff:     -0.722D-01-0.643D-01 0.259D+00 0.859D+00
 Gap=     0.190 Goal=   None    Shift=    0.000
 Gap=     0.137 Goal=   None    Shift=    0.000
 RMSDP=4.88D-08 MaxDP=2.35D-06 DE=-3.94D-10 OVMax= 6.53D-06

 Cycle  17  Pass 1  IDiag  1:
 RMSU=  2.19D-08    CP:  9.41D-01  4.37D-01  1.08D+00  1.08D+00  1.33D+00
                    CP:  1.57D+00  1.36D+00  1.34D+00  1.77D+00  1.57D+00
                    CP:  1.45D+00  1.52D+00  1.99D+00  1.44D+00  1.23D+00
                    CP:  1.19D+00
 E= -874.387913852878     Delta-E=       -0.000000000023 Rises=F Damp=F
 DIIS: error= 5.78D-08 at cycle  17 NSaved=  17.
 NSaved=17 IEnMin=17 EnMin= -874.387913852878     IErMin=17 ErrMin= 5.78D-08
 ErrMax= 5.78D-08  0.00D+00 EMaxC= 1.00D-01 BMatC= 5.37D-12 BMatP= 3.79D-11
 IDIUse=1 WtCom= 1.00D+00 WtEn= 0.00D+00
 Coeff-Com:  0.151D-06-0.370D-06-0.284D-05-0.489D-05 0.575D-05 0.145D-04
 Coeff-Com:  0.782D-04 0.507D-04-0.287D-03-0.834D-03 0.919D-03 0.581D-02
 Coeff-Com:  0.899D-02-0.490D-01-0.760D-01 0.243D+00 0.867D+00
 Coeff:      0.151D-06-0.370D-06-0.284D-05-0.489D-05 0.575D-05 0.145D-04
 Coeff:      0.782D-04 0.507D-04-0.287D-03-0.834D-03 0.919D-03 0.581D-02
 Coeff:      0.899D-02-0.490D-01-0.760D-01 0.243D+00 0.867D+00
 Gap=     0.190 Goal=   None    Shift=    0.000
 Gap=     0.137 Goal=   None    Shift=    0.000
 RMSDP=1.64D-08 MaxDP=4.41D-07 DE=-2.34D-11 OVMax= 1.94D-06

 Cycle  18  Pass 1  IDiag  1:
 RMSU=  7.57D-09    CP:  9.41D-01  4.37D-01  1.08D+00  1.08D+00  1.33D+00
                    CP:  1.57D+00  1.36D+00  1.34D+00  1.77D+00  1.57D+00
                    CP:  1.45D+00  1.52D+00  1.99D+00  1.45D+00  1.25D+00
                    CP:  1.35D+00  1.04D+00
 E= -874.387913852889     Delta-E=       -0.000000000012 Rises=F Damp=F
 DIIS: error= 1.81D-08 at cycle  18 NSaved=  18.
 NSaved=18 IEnMin=18 EnMin= -874.387913852889     IErMin=18 ErrMin= 1.81D-08
 ErrMax= 1.81D-08  0.00D+00 EMaxC= 1.00D-01 BMatC= 4.33D-13 BMatP= 5.37D-12
 IDIUse=1 WtCom= 1.00D+00 WtEn= 0.00D+00
 Coeff-Com:  0.177D-06-0.198D-06-0.376D-06-0.256D-05-0.363D-05 0.902D-05
 Coeff-Com:  0.205D-04 0.366D-04 0.115D-03-0.386D-03-0.107D-02 0.142D-03
 Coeff-Com:  0.786D-02 0.237D-02-0.379D-01-0.612D-01 0.131D+00 0.959D+00
 Coeff:      0.177D-06-0.198D-06-0.376D-06-0.256D-05-0.363D-05 0.902D-05
 Coeff:      0.205D-04 0.366D-04 0.115D-03-0.386D-03-0.107D-02 0.142D-03
 Coeff:      0.786D-02 0.237D-02-0.379D-01-0.612D-01 0.131D+00 0.959D+00
 Gap=     0.190 Goal=   None    Shift=    0.000
 Gap=     0.137 Goal=   None    Shift=    0.000
 RMSDP=5.91D-09 MaxDP=2.55D-07 DE=-1.18D-11 OVMax= 4.66D-07

 SCF Done:  E(UB3LYP) =  -874.387913853     A.U. after   18 cycles
            NFock= 18  Conv=0.59D-08     -V/T= 2.0017
 <Sx>= 0.0000 <Sy>= 0.0000 <Sz>= 0.5000 <S**2>= 0.7606 S= 0.5053
 <L.S>= 0.000000000000E+00
 KE= 8.728749554855D+02 PE=-2.448584682822D+03 EE= 5.144336789804D+02
 Annihilation of the first spin contaminant:
 S**2 before annihilation     0.7606,   after     0.7501
 Leave Link  502 at Wed Aug  3 20:11:58 2016, MaxMem=    33554432 cpu:       275.8
 (Enter /home/proyectos/fulerenos/M3C-v2.0/M3C-deps_CCC/g09-AM64L-G09RevC.01/l801.exe)
 DoSCS=F DFT=T ScalE2(SS,OS)=  1.000000  1.000000
 Range of M.O.s used for correlation:     1   202
 NBasis=   202 NAE=    24 NBE=    23 NFC=     0 NFV=     0
 NROrb=    202 NOA=    24 NOB=    23 NVA=   178 NVB=   179

 **** Warning!!: The largest alpha MO coefficient is  0.43079526D+02


 **** Warning!!: The largest beta MO coefficient is  0.40983205D+02

 Leave Link  801 at Wed Aug  3 20:11:58 2016, MaxMem=    33554432 cpu:         0.1
 (Enter /home/proyectos/fulerenos/M3C-v2.0/M3C-deps_CCC/g09-AM64L-G09RevC.01/l1101.exe)
 Using compressed storage, NAtomX=     7.
 Will process      8 centers per pass.
 Leave Link 1101 at Wed Aug  3 20:11:58 2016, MaxMem=    33554432 cpu:         0.9
 (Enter /home/proyectos/fulerenos/M3C-v2.0/M3C-deps_CCC/g09-AM64L-G09RevC.01/l1102.exe)
 Symmetrizing basis deriv contribution to polar:
 IMax=3 JMax=2 DiffMx= 0.00D+00
 Leave Link 1102 at Wed Aug  3 20:11:58 2016, MaxMem=    33554432 cpu:         0.1
 (Enter /home/proyectos/fulerenos/M3C-v2.0/M3C-deps_CCC/g09-AM64L-G09RevC.01/l1110.exe)
 Forming Gx(P) for the SCF density, NAtomX=     7.
 Integral derivatives from FoFJK, PRISM(SPDF).
 Do as many integral derivatives as possible in FoFJK.
 G2DrvN: MDV=      33554272.
 G2DrvN: will do     8 centers at a time, making    1 passes.
 Calling FoFCou, ICntrl=  3107 FMM=F I1Cent=   0 AccDes= 0.00D+00.
 FoFJK:  IHMeth= 1 ICntrl=    3107 DoSepK=F KAlg= 0 I1Cent=   0 FoldK=F
 IRaf=         0 NMat=   1 IRICut=       1 DoRegI=T DoRafI=F ISym2E= 0.
 FoFCou: FMM=F IPFlag=           0 FMFlag=      100000 FMFlg1=           0
         NFxFlg=           0 DoJE=F BraDBF=F KetDBF=F FulRan=T
         wScrn=  0.000000 ICntrl=    3107 IOpCl=  1 I1Cent=           0 NGrid=           0
         NMat0=    1 NMatS0=      1 NMatT0=    0 NMatD0=    1 NMtDS0=    0 NMtDT0=    0
 Symmetry not used in FoFCou.
 End of G2Drv F.D. properties file   721 does not exist.
 End of G2Drv F.D. properties file   722 does not exist.
 End of G2Drv F.D. properties file   788 does not exist.
 Leave Link 1110 at Wed Aug  3 20:12:34 2016, MaxMem=    33554432 cpu:       143.5
 (Enter /home/proyectos/fulerenos/M3C-v2.0/M3C-deps_CCC/g09-AM64L-G09RevC.01/l1002.exe)
 Minotr:  UHF open shell wavefunction.
          IDoAtm=1111111
          Direct CPHF calculation.
          Differentiating once with respect to electric field.
                with respect to dipole field.
          Differentiating once with respect to nuclear coordinates.
          Requested convergence is 1.0D-08 RMS, and 1.0D-07 maximum.
          Secondary convergence is 1.0D-12 RMS, and 1.0D-12 maximum.
          NewPWx=T KeepS1=F KeepF1=F KeepIn=T MapXYZ=F SortEE=F KeepMc=T.
          MDV=      33553954 using IRadAn=       2.
 Generate precomputed XC quadrature information.
          Solving linear equations simultaneously, MaxMat=       0.
 FoFJK:  IHMeth= 1 ICntrl=       0 DoSepK=F KAlg= 0 I1Cent=   0 FoldK=F
 IRaf= 960000000 NMat=  24 IRICut=      60 DoRegI=T DoRafI=T ISym2E= 2.
 FoFCou: FMM=F IPFlag=           0 FMFlag=      100000 FMFlg1=           0
         NFxFlg=           0 DoJE=F BraDBF=F KetDBF=F FulRan=T
         wScrn=  0.000000 ICntrl=       0 IOpCl=  1 I1Cent=           0 NGrid=           0
         NMat0=   24 NMatS0=     24 NMatT0=    0 NMatD0=   24 NMtDS0=    0 NMtDT0=    0
 Integrals replicated using symmetry in FoFCou.
          There are    24 degrees of freedom in the 1st order CPHF.  IDoFFX=6 NUNeed=     3.
     21 vectors produced by pass  0 Test12= 3.50D-14 4.17D-09 XBig12= 2.85D+02 5.75D+00.
 AX will form    21 AO Fock derivatives at one time.
     21 vectors produced by pass  1 Test12= 3.50D-14 4.17D-09 XBig12= 5.75D+01 1.20D+00.
     21 vectors produced by pass  2 Test12= 3.50D-14 4.17D-09 XBig12= 1.92D+00 2.84D-01.
     21 vectors produced by pass  3 Test12= 3.50D-14 4.17D-09 XBig12= 2.51D-02 3.41D-02.
     21 vectors produced by pass  4 Test12= 3.50D-14 4.17D-09 XBig12= 4.78D-04 4.81D-03.
     21 vectors produced by pass  5 Test12= 3.50D-14 4.17D-09 XBig12= 7.23D-06 4.19D-04.
     21 vectors produced by pass  6 Test12= 3.50D-14 4.17D-09 XBig12= 7.92D-08 4.53D-05.
     13 vectors produced by pass  7 Test12= 3.50D-14 4.17D-09 XBig12= 5.98D-10 4.64D-06.
      4 vectors produced by pass  8 Test12= 3.50D-14 4.17D-09 XBig12= 4.65D-12 2.25D-07.
      3 vectors produced by pass  9 Test12= 3.50D-14 4.17D-09 XBig12= 4.25D-14 2.41D-08.
 InvSVY:  IOpt=1 It=  1 EMax= 1.07D-14
 Solved reduced A of dimension   167 with    24 vectors.
 FullF1:  Do perturbations    1 to     3.
 Isotropic polarizability for W=    0.000000       72.18 Bohr**3.
 End of Minotr F.D. properties file   721 does not exist.
 End of Minotr F.D. properties file   722 does not exist.
 End of Minotr F.D. properties file   788 does not exist.
 Leave Link 1002 at Wed Aug  3 20:14:41 2016, MaxMem=    33554432 cpu:       506.6
 (Enter /home/proyectos/fulerenos/M3C-v2.0/M3C-deps_CCC/g09-AM64L-G09RevC.01/l601.exe)
 Copying SCF densities to generalized density rwf, IOpCl= 1 IROHF=0.

 **********************************************************************

            Population analysis using the SCF density.

 **********************************************************************

 Orbital symmetries:
 Alpha Orbitals:
       Occupied  (A) (A) (A) (A) (A) (A) (A) (A) (A) (A) (A) (A)
                 (A) (A) (A) (A) (A) (A) (A) (A) (A) (A) (A) (A)
       Virtual   (A) (A) (A) (A) (A) (A) (A) (A) (A) (A) (A) (A)
                 (A) (A) (A) (A) (A) (A) (A) (A) (A) (A) (A) (A)
                 (A) (A) (A) (A) (A) (A) (A) (A) (A) (A) (A) (A)
                 (A) (A) (A) (A) (A) (A) (A) (A) (A) (A) (A) (A)
                 (A) (A) (A) (A) (A) (A) (A) (A) (A) (A) (A) (A)
                 (A) (A) (A) (A) (A) (A) (A) (A) (A) (A) (A) (A)
                 (A) (A) (A) (A) (A) (A) (A) (A) (A) (A) (A) (A)
                 (A) (A) (A) (A) (A) (A) (A) (A) (A) (A) (A) (A)
                 (A) (A) (A) (A) (A) (A) (A) (A) (A) (A) (A) (A)
                 (A) (A) (A) (A) (A) (A) (A) (A) (A) (A) (A) (A)
                 (A) (A) (A) (A) (A) (A) (A) (A) (A) (A) (A) (A)
                 (A) (A) (A) (A) (A) (A) (A) (A) (A) (A) (A) (A)
                 (A) (A) (A) (A) (A) (A) (A) (A) (A) (A) (A) (A)
                 (A) (A) (A) (A) (A) (A) (A) (A) (A) (A) (A) (A)
                 (A) (A) (A) (A) (A) (A) (A) (A) (A) (A)
 Beta  Orbitals:
       Occupied  (A) (A) (A) (A) (A) (A) (A) (A) (A) (A) (A) (A)
                 (A) (A) (A) (A) (A) (A) (A) (A) (A) (A) (A)
       Virtual   (A) (A) (A) (A) (A) (A) (A) (A) (A) (A) (A) (A)
                 (A) (A) (A) (A) (A) (A) (A) (A) (A) (A) (A) (A)
                 (A) (A) (A) (A) (A) (A) (A) (A) (A) (A) (A) (A)
                 (A) (A) (A) (A) (A) (A) (A) (A) (A) (A) (A) (A)
                 (A) (A) (A) (A) (A) (A) (A) (A) (A) (A) (A) (A)
                 (A) (A) (A) (A) (A) (A) (A) (A) (A) (A) (A) (A)
                 (A) (A) (A) (A) (A) (A) (A) (A) (A) (A) (A) (A)
                 (A) (A) (A) (A) (A) (A) (A) (A) (A) (A) (A) (A)
                 (A) (A) (A) (A) (A) (A) (A) (A) (A) (A) (A) (A)
                 (A) (A) (A) (A) (A) (A) (A) (A) (A) (A) (A) (A)
                 (A) (A) (A) (A) (A) (A) (A) (A) (A) (A) (A) (A)
                 (A) (A) (A) (A) (A) (A) (A) (A) (A) (A) (A) (A)
                 (A) (A) (A) (A) (A) (A) (A) (A) (A) (A) (A) (A)
                 (A) (A) (A) (A) (A) (A) (A) (A) (A) (A) (A) (A)
                 (A) (A) (A) (A) (A) (A) (A) (A) (A) (A) (A)
 The electronic state is 2-A.
 Alpha  occ. eigenvalues --  -88.88731 -88.88077 -10.21867 -10.21446  -7.97018
 Alpha  occ. eigenvalues --   -7.96539  -5.93465  -5.93109  -5.92927  -5.92551
 Alpha  occ. eigenvalues --   -5.92398  -5.91982  -0.84010  -0.77713  -0.67172
 Alpha  occ. eigenvalues --   -0.58086  -0.47711  -0.46672  -0.40850  -0.37783
 Alpha  occ. eigenvalues --   -0.31657  -0.29000  -0.25600  -0.24522
 Alpha virt. eigenvalues --   -0.05562  -0.01939  -0.01553   0.00905   0.01396
 Alpha virt. eigenvalues --    0.02318   0.03976   0.04576   0.05611   0.06534
 Alpha virt. eigenvalues --    0.06621   0.07679   0.09354   0.09774   0.10733
 Alpha virt. eigenvalues --    0.11339   0.11909   0.12220   0.12987   0.13451
 Alpha virt. eigenvalues --    0.15376   0.15708   0.16189   0.18739   0.20662
 Alpha virt. eigenvalues --    0.22069   0.22929   0.24779   0.26978   0.28199
 Alpha virt. eigenvalues --    0.29012   0.29859   0.30921   0.32127   0.33267
 Alpha virt. eigenvalues --    0.34388   0.36611   0.38282   0.38988   0.41075
 Alpha virt. eigenvalues --    0.41264   0.42547   0.43969   0.46576   0.47078
 Alpha virt. eigenvalues --    0.48457   0.49930   0.51828   0.53912   0.57659
 Alpha virt. eigenvalues --    0.58562   0.60635   0.62460   0.66532   0.67630
 Alpha virt. eigenvalues --    0.72881   0.73560   0.75158   0.78881   0.81024
 Alpha virt. eigenvalues --    0.82405   0.85427   0.88647   0.90521   0.95028
 Alpha virt. eigenvalues --    0.96551   0.97078   0.99402   1.00414   1.04436
 Alpha virt. eigenvalues --    1.05438   1.06687   1.07772   1.08859   1.09795
 Alpha virt. eigenvalues --    1.10532   1.12509   1.16157   1.21271   1.23039
 Alpha virt. eigenvalues --    1.29419   1.31983   1.41512   1.44652   1.46115
 Alpha virt. eigenvalues --    1.47126   1.50996   1.56879   1.60330   1.62712
 Alpha virt. eigenvalues --    1.63105   1.64572   1.64977   1.67968   1.70115
 Alpha virt. eigenvalues --    1.71050   1.74733   1.80509   1.84603   1.85799
 Alpha virt. eigenvalues --    1.92765   1.94542   1.98180   1.98968   2.03704
 Alpha virt. eigenvalues --    2.14553   2.14914   2.18770   2.20092   2.26531
 Alpha virt. eigenvalues --    2.30019   2.40531   2.46013   2.54203   2.68797
 Alpha virt. eigenvalues --    2.70966   2.73204   2.73300   2.74299   2.81147
 Alpha virt. eigenvalues --    2.88166   2.89684   2.95475   3.06478   3.13731
 Alpha virt. eigenvalues --    3.16125   3.18178   3.28036   3.40269   3.50076
 Alpha virt. eigenvalues --    3.54461   3.55854   3.81376   3.86793   3.88274
 Alpha virt. eigenvalues --    4.00709   4.00904   4.10187   4.18086   4.27659
 Alpha virt. eigenvalues --    4.38354   4.41933   4.56822   4.61451   4.63871
 Alpha virt. eigenvalues --    4.65342   4.67988   4.71456   4.77776   4.78574
 Alpha virt. eigenvalues --    5.04180   5.10594   5.23523   5.38143   5.52490
 Alpha virt. eigenvalues --    6.16937   6.96005   7.00684   7.10328   7.13663
 Alpha virt. eigenvalues --    7.18880   7.35909   7.48021   7.55913   7.78149
 Alpha virt. eigenvalues --    7.98240   8.11169   8.25974  17.31813  17.33267
 Alpha virt. eigenvalues --   17.43079  17.52957  17.70569  17.80897  23.78812
 Alpha virt. eigenvalues --   25.94944 189.09148 189.19199
  Beta  occ. eigenvalues --  -88.88638 -88.88063 -10.22033 -10.19986  -7.96930
  Beta  occ. eigenvalues --   -7.96527  -5.93359  -5.92914  -5.92895  -5.92536
  Beta  occ. eigenvalues --   -5.92336  -5.91952  -0.83364  -0.76641  -0.66007
  Beta  occ. eigenvalues --   -0.56804  -0.46728  -0.46002  -0.40222  -0.37391
  Beta  occ. eigenvalues --   -0.31154  -0.27765  -0.25025
  Beta virt. eigenvalues --   -0.11308  -0.04971  -0.01688  -0.01161   0.01214
  Beta virt. eigenvalues --    0.01519   0.02565   0.04107   0.04598   0.05626
  Beta virt. eigenvalues --    0.06575   0.06983   0.07923   0.09558   0.09943
  Beta virt. eigenvalues --    0.10823   0.11607   0.12375   0.12473   0.13127
  Beta virt. eigenvalues --    0.13639   0.15395   0.15777   0.16364   0.19162
  Beta virt. eigenvalues --    0.20730   0.22259   0.23087   0.24849   0.27600
  Beta virt. eigenvalues --    0.28420   0.29277   0.30095   0.31348   0.32451
  Beta virt. eigenvalues --    0.33586   0.34528   0.36959   0.39040   0.39532
  Beta virt. eigenvalues --    0.41225   0.41895   0.43164   0.44451   0.46804
  Beta virt. eigenvalues --    0.48128   0.49564   0.51134   0.52897   0.54020
  Beta virt. eigenvalues --    0.58176   0.58859   0.61231   0.63076   0.66927
  Beta virt. eigenvalues --    0.68956   0.73194   0.74045   0.75354   0.79996
  Beta virt. eigenvalues --    0.81369   0.82488   0.85595   0.88808   0.90796
  Beta virt. eigenvalues --    0.95330   0.96985   0.97434   0.99618   1.00520
  Beta virt. eigenvalues --    1.04696   1.05719   1.06935   1.07887   1.09119
  Beta virt. eigenvalues --    1.10103   1.10835   1.12873   1.16559   1.22206
  Beta virt. eigenvalues --    1.23582   1.29916   1.33523   1.42554   1.44764
  Beta virt. eigenvalues --    1.46219   1.48797   1.51157   1.58387   1.60691
  Beta virt. eigenvalues --    1.63047   1.64804   1.65684   1.66351   1.68378
  Beta virt. eigenvalues --    1.70370   1.71818   1.75621   1.80840   1.85256
  Beta virt. eigenvalues --    1.86316   1.93471   1.94889   1.99130   2.00766
  Beta virt. eigenvalues --    2.04114   2.14784   2.15967   2.19005   2.20699
  Beta virt. eigenvalues --    2.27074   2.31452   2.41206   2.46780   2.54429
  Beta virt. eigenvalues --    2.69647   2.72369   2.74485   2.75778   2.77682
  Beta virt. eigenvalues --    2.84523   2.89215   2.90802   2.96340   3.09920
  Beta virt. eigenvalues --    3.15822   3.16621   3.18949   3.28951   3.40874
  Beta virt. eigenvalues --    3.50864   3.55638   3.57076   3.81393   3.87863
  Beta virt. eigenvalues --    3.88308   4.00775   4.02094   4.10761   4.18544
  Beta virt. eigenvalues --    4.29497   4.39031   4.43134   4.56879   4.61475
  Beta virt. eigenvalues --    4.64094   4.65929   4.68042   4.71568   4.77996
  Beta virt. eigenvalues --    4.79124   5.04442   5.11489   5.23848   5.38700
  Beta virt. eigenvalues --    5.52884   6.18285   7.00783   7.06947   7.10721
  Beta virt. eigenvalues --    7.15096   7.19865   7.36418   7.48465   7.59806
  Beta virt. eigenvalues --    7.78727   7.98281   8.12301   8.26373  17.31859
  Beta virt. eigenvalues --   17.33326  17.43110  17.53004  17.70646  17.81186
  Beta virt. eigenvalues --   23.79544  25.95753 189.09182 189.19264
          Condensed to atoms (all electrons):
               1          2          3          4          5          6
     1  S   15.739240   0.268008   0.298697  -0.079737  -0.050524   0.000996
     2  S    0.268008  15.636034  -0.063103  -0.002858   0.021597  -0.000719
     3  C    0.298697  -0.063103   6.367053  -1.022164   0.482289  -0.117842
     4  C   -0.079737  -0.002858  -1.022164   7.077388  -0.148834   0.420668
     5  H   -0.050524   0.021597   0.482289  -0.148834   0.539074   0.005898
     6  H    0.000996  -0.000719  -0.117842   0.420668   0.005898   0.478161
     7  H   -0.026095   0.293002   0.004249   0.002953  -0.001609  -0.001321
               7
     1  S   -0.026095
     2  S    0.293002
     3  C    0.004249
     4  C    0.002953
     5  H   -0.001609
     6  H   -0.001321
     7  H    0.595950
          Atomic-Atomic Spin Densities.
               1          2          3          4          5          6
     1  S    0.164382  -0.010858  -0.029362   0.015180  -0.018702  -0.012563
     2  S   -0.010858   0.027554   0.003786  -0.002299   0.005032   0.000763
     3  C   -0.029362   0.003786   0.058634  -0.270436   0.028871   0.029564
     4  C    0.015180  -0.002299  -0.270436   1.349553  -0.033612  -0.063049
     5  H   -0.018702   0.005032   0.028871  -0.033612   0.048687   0.005207
     6  H   -0.012563   0.000763   0.029564  -0.063049   0.005207   0.055841
     7  H   -0.001565   0.001296  -0.000347   0.000282   0.000420   0.000265
               7
     1  S   -0.001565
     2  S    0.001296
     3  C   -0.000347
     4  C    0.000282
     5  H    0.000420
     6  H    0.000265
     7  H   -0.000399
 Mulliken charges and spin densities:
               1          2
     1  S   -0.150585   0.106512
     2  S   -0.151963   0.025276
     3  C    0.050822  -0.179290
     4  C   -0.247415   0.995619
     5  H    0.152109   0.035904
     6  H    0.214160   0.016028
     7  H    0.132872  -0.000050
 Sum of Mulliken charges =  -0.00000   1.00000
 Mulliken charges and spin densities with hydrogens summed into heavy atoms:
               1          2
     1  S   -0.150585   0.106512
     2  S   -0.019091   0.025226
     3  C    0.202931  -0.143385
     4  C   -0.033256   1.011647
 APT charges:
               1
     1  S    0.055257
     2  S   -0.065788
     3  C    0.017351
     4  C   -0.239272
     5  H    0.064252
     6  H    0.167654
     7  H    0.000545
 Sum of APT charges =   0.00000
 APT charges with hydrogens summed into heavy atoms:
               1
     1  S    0.055257
     2  S   -0.065242
     3  C    0.081604
     4  C   -0.071618
 Electronic spatial extent (au):  <R**2>=            538.5983
 Charge=             -0.0000 electrons
 Dipole moment (field-independent basis, Debye):
    X=             -0.3783    Y=             -0.4651    Z=              0.8274  Tot=              1.0218
 Quadrupole moment (field-independent basis, Debye-Ang):
   XX=            -38.0390   YY=            -40.1056   ZZ=            -37.4223
   XY=             -2.1791   XZ=             -0.0409   YZ=              0.4722
 Traceless Quadrupole moment (field-independent basis, Debye-Ang):
   XX=              0.4833   YY=             -1.5833   ZZ=              1.1000
   XY=             -2.1791   XZ=             -0.0409   YZ=              0.4722
 Octapole moment (field-independent basis, Debye-Ang**2):
  XXX=              3.5539  YYY=              2.4488  ZZZ=              2.2110  XYY=              3.0408
  XXY=              3.0908  XXZ=              9.5312  XZZ=              3.1664  YZZ=             -2.0836
  YYZ=             -0.8303  XYZ=             -3.9883
 Hexadecapole moment (field-independent basis, Debye-Ang**3):
 XXXX=           -588.5774 YYYY=           -130.8411 ZZZZ=            -70.4677 XXXY=            -30.4067
 XXXZ=            -18.9192 YYYX=             -4.7837 YYYZ=              1.8847 ZZZX=              1.0149
 ZZZY=              0.7884 XXYY=           -124.2795 XXZZ=           -101.8899 YYZZ=            -33.6624
 XXYZ=              1.0223 YYXZ=              4.0096 ZZXY=             -3.4804
 N-N= 1.868881345031D+02 E-N=-2.448584683960D+03  KE= 8.728749554856D+02
  Exact polarizability: 104.224   0.449  58.782  -2.467   0.059  53.543
 Approx polarizability: 165.956  -3.290  95.694  -7.333  -1.741  87.508
                          Isotropic Fermi Contact Couplings
        Atom                 a.u.       MegaHertz       Gauss      10(-4) cm-1
     1  S(33)              0.07213      24.77379       8.83990       8.26365
     2  S(33)             -0.01337      -4.59363      -1.63912      -1.53227
     3  C(13)             -0.00133      -1.48956      -0.53151      -0.49686
     4  C(13)              0.23138     260.11344      92.81494      86.76451
     5  H(1)               0.01825      81.55988      29.10259      27.20545
     6  H(1)               0.00597      26.67279       9.51752       8.89709
     7  H(1)               0.00023       1.04937       0.37444       0.35003
 --------------------------------------------------------
       Center         ----  Spin Dipole Couplings  ----
                      3XX-RR        3YY-RR        3ZZ-RR
 --------------------------------------------------------
     1   Atom        0.013064      0.309931     -0.322994
     2   Atom        0.149172     -0.088740     -0.060432
     3   Atom        0.058941     -0.029765     -0.029175
     4   Atom        0.051832      0.261127     -0.312959
     5   Atom        0.010450     -0.009805     -0.000645
     6   Atom        0.007080     -0.008255      0.001174
     7   Atom        0.002542     -0.002506     -0.000036
 --------------------------------------------------------
                        XY            XZ            YZ
 --------------------------------------------------------
     1   Atom        0.451736     -0.062228     -0.162118
     2   Atom        0.080949      0.012774      0.011368
     3   Atom        0.009943     -0.084608      0.056345
     4   Atom        0.651579      0.362599      0.303135
     5   Atom       -0.003406     -0.012787      0.002694
     6   Atom       -0.013076     -0.040382      0.050074
     7   Atom        0.000021      0.001910     -0.000534
 --------------------------------------------------------


 ---------------------------------------------------------------------------------
              Anisotropic Spin Dipole Couplings in Principal Axis System
 ---------------------------------------------------------------------------------

       Atom             a.u.   MegaHertz   Gauss  10(-4) cm-1        Axes

              Baa    -0.3806   -15.605    -5.568    -5.205 -0.3673  0.4335  0.8229
     1 S(33)  Bbb    -0.2849   -11.682    -4.168    -3.897  0.7335 -0.4090  0.5429
              Bcc     0.6655    27.287     9.737     9.102  0.5719  0.8030 -0.1677
 
              Baa    -0.1146    -4.699    -1.677    -1.567 -0.2850  0.9494 -0.1320
     2 S(33)  Bbb    -0.0605    -2.481    -0.885    -0.828 -0.1016  0.1070  0.9891
              Bcc     0.1751     7.180     2.562     2.395  0.9531  0.2952  0.0659
 
              Baa    -0.1147   -15.398    -5.494    -5.136  0.3935 -0.5396  0.7443
     3 C(13)  Bbb     0.0011     0.152     0.054     0.051  0.4144  0.8268  0.3803
              Bcc     0.1136    15.246     5.440     5.085  0.8206 -0.1588 -0.5489
 
              Baa    -0.5677   -76.185   -27.185   -25.413  0.7130 -0.3353 -0.6158
     4 C(13)  Bbb    -0.4165   -55.897   -19.945   -18.645  0.3200 -0.6259  0.7113
              Bcc     0.9843   132.082    47.130    44.058  0.6239  0.7042  0.3389
 
              Baa    -0.0105    -5.623    -2.007    -1.876 -0.0162  0.9592 -0.2821
     5 H(1)   Bbb    -0.0089    -4.770    -1.702    -1.591  0.5634  0.2419  0.7900
              Bcc     0.0195    10.394     3.709     3.467  0.8260 -0.1461 -0.5444
 
              Baa    -0.0597   -31.830   -11.358   -10.617  0.3134 -0.6205  0.7188
     6 H(1)   Bbb    -0.0114    -6.082    -2.170    -2.029  0.7875  0.5928  0.1684
              Bcc     0.0711    37.912    13.528    12.646 -0.5307  0.5133  0.6745
 
              Baa    -0.0027    -1.419    -0.506    -0.473 -0.1030  0.9574  0.2699
     7 H(1)   Bbb    -0.0009    -0.484    -0.173    -0.161 -0.4627 -0.2863  0.8390
              Bcc     0.0036     1.903     0.679     0.635  0.8805 -0.0385  0.4725
 

 ---------------------------------------------------------------------------------

 No NMR shielding tensors so no spin-rotation constants.
 Leave Link  601 at Wed Aug  3 20:14:41 2016, MaxMem=    33554432 cpu:         1.4
 (Enter /home/proyectos/fulerenos/M3C-v2.0/M3C-deps_CCC/g09-AM64L-G09RevC.01/l701.exe)
 Compute integral second derivatives.
 ... and contract with generalized density number  0.
 Leave Link  701 at Wed Aug  3 20:14:42 2016, MaxMem=    33554432 cpu:         1.1
 (Enter /home/proyectos/fulerenos/M3C-v2.0/M3C-deps_CCC/g09-AM64L-G09RevC.01/l702.exe)
 L702 exits ... SP integral derivatives will be done elsewhere.
 Leave Link  702 at Wed Aug  3 20:14:42 2016, MaxMem=    33554432 cpu:         0.1
 (Enter /home/proyectos/fulerenos/M3C-v2.0/M3C-deps_CCC/g09-AM64L-G09RevC.01/l703.exe)
 Compute integral second derivatives, UseDBF=F ICtDFT=           0.
 Integral derivatives from FoFJK, PRISM(SPDF).
 Calling FoFJK, ICntrl=    100127 FMM=F ISym2X=0 I1Cent= 0 IOpClX= 1 NMat=1 NMatS=1 NMatT=0.
 FoFJK:  IHMeth= 1 ICntrl=  100127 DoSepK=F KAlg= 0 I1Cent=   0 FoldK=F
 IRaf=         0 NMat=   1 IRICut=       1 DoRegI=T DoRafI=F ISym2E= 0.
 FoFCou: FMM=F IPFlag=           0 FMFlag=      100000 FMFlg1=         800
         NFxFlg=           0 DoJE=F BraDBF=F KetDBF=F FulRan=T
         wScrn=  0.000000 ICntrl=  100127 IOpCl=  1 I1Cent=           0 NGrid=           0
         NMat0=    1 NMatS0=      1 NMatT0=    0 NMatD0=    1 NMtDS0=    0 NMtDT0=    0
 Symmetry not used in FoFCou.
 Leave Link  703 at Wed Aug  3 20:15:46 2016, MaxMem=    33554432 cpu:       256.8
 (Enter /home/proyectos/fulerenos/M3C-v2.0/M3C-deps_CCC/g09-AM64L-G09RevC.01/l716.exe)
 Dipole        =-1.48818183D-01-1.82993057D-01 3.25542142D-01
 Polarizability= 1.04223690D+02 4.48932754D-01 5.87821499D+01
                -2.46678315D+00 5.88397600D-02 5.35426529D+01
 Full mass-weighted force constant matrix:
 Low frequencies ---  -14.1002   -6.1145   -0.0021   -0.0016   -0.0012    4.7236
 Low frequencies ---   71.8196  191.4948  315.6294
 Diagonal vibrational polarizability:
        8.9571118       4.2623333       2.3193836
 Harmonic frequencies (cm**-1), IR intensities (KM/Mole), Raman scattering
 activities (A**4/AMU), depolarization ratios for plane and unpolarized
 incident light, reduced masses (AMU), force constants (mDyne/A),
 and normal coordinates:
                      1                      2                      3
                      A                      A                      A
 Frequencies --     71.8130               191.4948               315.6240
 Red. masses --      2.5543                 4.5827                 1.6010
 Frc consts  --      0.0078                 0.0990                 0.0940
 IR Inten    --      0.6292                 0.3890                 3.8227
  Atom  AN      X      Y      Z        X      Y      Z        X      Y      Z
     1  16    -0.00  -0.05   0.07     0.05   0.19  -0.02     0.04   0.02  -0.01
     2  16     0.05   0.04  -0.07    -0.15  -0.10  -0.03     0.04  -0.03   0.00
     3   6     0.02  -0.09   0.17     0.19   0.00   0.17    -0.10   0.08   0.02
     4   6    -0.14   0.12  -0.16     0.07  -0.21  -0.06    -0.12  -0.09  -0.01
     5   1     0.20  -0.33   0.46     0.52  -0.16   0.44    -0.11   0.17  -0.08
     6   1    -0.37   0.33  -0.49    -0.34  -0.22  -0.33    -0.30  -0.32   0.04
     7   1     0.19   0.05  -0.06    -0.20  -0.09  -0.03     0.45   0.69   0.18
                      4                      5                      6
                      A                      A                      A
 Frequencies --    346.0957               492.9266               627.0249
 Red. masses --      1.6911                23.1703                 3.5107
 Frc consts  --      0.1193                 3.3170                 0.8132
 IR Inten    --     15.0634                 1.5975                 7.6698
  Atom  AN      X      Y      Z        X      Y      Z        X      Y      Z
     1  16    -0.03  -0.02   0.05     0.55  -0.30   0.01    -0.09  -0.12  -0.04
     2  16    -0.08  -0.02  -0.02    -0.47   0.32  -0.01    -0.01   0.01   0.00
     3   6     0.09  -0.06  -0.06    -0.09   0.01   0.02     0.23   0.23   0.19
     4   6     0.12   0.07  -0.02    -0.07  -0.03   0.01     0.07   0.08  -0.08
     5   1     0.08  -0.04  -0.07    -0.20   0.06  -0.09    -0.04   0.43  -0.13
     6   1     0.34   0.23   0.00    -0.28  -0.33   0.10    -0.33  -0.67   0.23
     7   1     0.45   0.74   0.17    -0.10  -0.10  -0.07    -0.07   0.05   0.01
                      7                      8                      9
                      A                      A                      A
 Frequencies --    673.5568               818.2478               849.0915
 Red. masses --      2.0476                 1.5750                 1.1586
 Frc consts  --      0.5473                 0.6213                 0.4921
 IR Inten    --      6.3135                74.1843                68.6215
  Atom  AN      X      Y      Z        X      Y      Z        X      Y      Z
     1  16    -0.02  -0.06   0.01     0.00  -0.02  -0.01    -0.01  -0.01  -0.00
     2  16     0.00   0.01   0.00     0.00   0.00  -0.00    -0.00   0.00   0.01
     3   6    -0.01   0.20  -0.11     0.04   0.09   0.10    -0.03   0.09  -0.05
     4   6     0.08  -0.09   0.12    -0.11  -0.13  -0.05    -0.03   0.00  -0.03
     5   1     0.16  -0.14   0.29     0.05   0.30  -0.10     0.36  -0.38   0.55
     6   1    -0.40   0.44  -0.65     0.71   0.59  -0.01     0.32  -0.24   0.41
     7   1     0.04   0.04   0.01    -0.04  -0.01  -0.00     0.25  -0.12  -0.01
                     10                     11                     12
                      A                      A                      A
 Frequencies --    872.0147              1186.3075              1604.4515
 Red. masses --      1.0665                 1.0944                 6.7325
 Frc consts  --      0.4778                 0.9075                10.2113
 IR Inten    --     22.5248                 1.7475                 7.5372
  Atom  AN      X      Y      Z        X      Y      Z        X      Y      Z
     1  16    -0.01   0.01  -0.02    -0.00  -0.01  -0.01     0.01   0.01   0.00
     2  16    -0.02   0.00   0.02     0.00   0.00   0.00    -0.00  -0.00  -0.00
     3   6     0.01  -0.02   0.02    -0.05  -0.04  -0.01     0.46  -0.04  -0.25
     4   6     0.01  -0.00   0.01    -0.01   0.04   0.04    -0.44   0.03   0.23
     5   1    -0.08   0.12  -0.15     0.87   0.45  -0.16     0.09  -0.28  -0.25
     6   1    -0.08   0.06  -0.10    -0.09  -0.01   0.01    -0.40   0.18   0.37
     7   1     0.83  -0.49  -0.06    -0.01   0.00   0.00     0.02   0.01   0.00
                     13                     14                     15
                      A                      A                      A
 Frequencies --   2618.3704              3140.0140              3266.0910
 Red. masses --      1.0394                 1.0896                 1.1062
 Frc consts  --      4.1987                 6.3296                 6.9528
 IR Inten    --      2.8331                 0.7436                 4.2675
  Atom  AN      X      Y      Z        X      Y      Z        X      Y      Z
     1  16    -0.00   0.00   0.00     0.00  -0.00  -0.00    -0.00  -0.00  -0.00
     2  16     0.00   0.01  -0.03    -0.00   0.00   0.00     0.00  -0.00  -0.00
     3   6     0.00  -0.00   0.00     0.03  -0.06  -0.06    -0.01   0.00   0.01
     4   6    -0.00   0.00  -0.00    -0.00  -0.00  -0.00     0.05  -0.04  -0.06
     5   1    -0.00   0.00  -0.00    -0.24   0.68   0.68     0.01  -0.03  -0.03
     6   1     0.00  -0.00   0.00    -0.03   0.02   0.04    -0.49   0.54   0.68
     7   1    -0.04  -0.22   0.97    -0.00  -0.00  -0.00    -0.00  -0.00  -0.00

 -------------------
 - Thermochemistry -
 -------------------
 Temperature   298.150 Kelvin.  Pressure   1.00000 Atm.
 Atom     1 has atomic number 16 and mass  31.97207
 Atom     2 has atomic number 16 and mass  31.97207
 Atom     3 has atomic number  6 and mass  12.00000
 Atom     4 has atomic number  6 and mass  12.00000
 Atom     5 has atomic number  1 and mass   1.00783
 Atom     6 has atomic number  1 and mass   1.00783
 Atom     7 has atomic number  1 and mass   1.00783
 Molecular mass:    90.96762 amu.
 Principal axes and moments of inertia in atomic units:
                           1         2         3
     Eigenvalues --   127.00808 733.70999 814.63318
           X            1.00000  -0.00149   0.00183
           Y            0.00144   0.99960   0.02815
           Z           -0.00187  -0.02815   0.99960
 This molecule is an asymmetric top.
 Rotational symmetry number  1.
 Rotational temperatures (Kelvin)      0.68196     0.11805     0.10632
 Rotational constants (GHZ):          14.20966     2.45975     2.21540
 Zero-point vibrational energy     102120.0 (Joules/Mol)
                                   24.40726 (Kcal/Mol)
 Warning -- explicit consideration of   5 degrees of freedom as
           vibrations may cause significant error
 Vibrational temperatures:    103.32   275.52   454.11   497.95   709.21
          (Kelvin)            902.15   969.10  1177.27  1221.65  1254.63
                             1706.83  2308.44  3767.25  4517.77  4699.17
 
 Zero-point correction=                           0.038895 (Hartree/Particle)
 Thermal correction to Energy=                    0.044577
 Thermal correction to Enthalpy=                  0.045521
 Thermal correction to Gibbs Free Energy=         0.008713
 Sum of electronic and zero-point Energies=           -874.349018
 Sum of electronic and thermal Energies=              -874.343337
 Sum of electronic and thermal Enthalpies=            -874.342392
 Sum of electronic and thermal Free Energies=         -874.379201
 
                     E (Thermal)             CV                S
                      KCal/Mol        Cal/Mol-Kelvin    Cal/Mol-Kelvin
 Total                   27.973             18.130             77.470
 Electronic               0.000              0.000              1.377
 Translational            0.889              2.981             39.436
 Rotational               0.889              2.981             25.832
 Vibrational             26.195             12.168             10.825
 Vibration     1          0.598              1.967              4.103
 Vibration     2          0.634              1.852              2.213
 Vibration     3          0.703              1.644              1.333
 Vibration     4          0.724              1.583              1.184
 Vibration     5          0.849              1.266              0.676
                       Q            Log10(Q)             Ln(Q)
 Total Bot       0.982542D-04         -4.007649         -9.227952
 Total V=0       0.763788D+14         13.882973         31.966727
 Vib (Bot)       0.146060D-16        -16.835469        -38.765101
 Vib (Bot)    1  0.287123D+01          0.458068          1.054741
 Vib (Bot)    2  0.104458D+01          0.018941          0.043613
 Vib (Bot)    3  0.597140D+00         -0.223924         -0.515604
 Vib (Bot)    4  0.534434D+00         -0.272106         -0.626547
 Vib (Bot)    5  0.335510D+00         -0.474294         -1.092102
 Vib (V=0)       0.113541D+02          1.055152          2.429578
 Vib (V=0)    1  0.341444D+01          0.533320          1.228014
 Vib (V=0)    2  0.165808D+01          0.219605          0.505659
 Vib (V=0)    3  0.127883D+01          0.106813          0.245945
 Vib (V=0)    4  0.123186D+01          0.090561          0.208525
 Vib (V=0)    5  0.110214D+01          0.042235          0.097250
 Electronic      0.200000D+01          0.301030          0.693147
 Translational   0.341024D+08          7.532785         17.344879
 Rotational      0.986292D+05          4.994005         11.499122
 
                                                              b3lyp opt
                                                             IR Spectrum
 
     3    3                    2                                      1               1                                              
     2    1                    6                                      6               1           88 8    6 6    4     33    1       
     6    4                    1                                      0               8           74 1    7 2    9     41    9    7  
     6    0                    8                                      4               6           29 8    4 7    3     66    1    2  
 
     X    X                    X                                      X               X           XX X    X X    X     XX    X    X  
                                                                      X                           XX X    X X          X             
                                                                                                  XX X                 X             
                                                                                                  XX X                 X             
                                                                                                  XX X                               
                                                                                                  XX X                               
                                                                                                   X X                               
                                                                                                   X X                               
                                                                                                   X X                               
                                                                                                   X X                               
                                                                                                   X X                               
                                                                                                   X X                               
                                                                                                   X X                               
                                                                                                   X X                               
                                                                                                   X X                               
                                                                                                   X X                               
                                                                                                   X X                               
                                                                                                   X X                               
                                                                                                   X X                               
                                                                                                     X                               
 
 ***** Axes restored to original set *****
 -------------------------------------------------------------------
 Center     Atomic                   Forces (Hartrees/Bohr)
 Number     Number              X              Y              Z
 -------------------------------------------------------------------
      1       16           0.000036713    0.000033355   -0.000024372
      2       16          -0.000016791   -0.000035853    0.000044811
      3        6          -0.000017282   -0.000004342    0.000041869
      4        6          -0.000007731   -0.000000907   -0.000030400
      5        1           0.000014405    0.000003582   -0.000015252
      6        1           0.000002406    0.000002062    0.000016969
      7        1          -0.000011720    0.000002104   -0.000033625
 -------------------------------------------------------------------
 Cartesian Forces:  Max     0.000044811 RMS     0.000023612
 Z-matrix is all fixed cartesians, so copy forces.
 Force constants in Cartesian coordinates: 
                1             2             3             4             5 
      1  0.171784D+00
      2 -0.705680D-02  0.101002D+00
      3  0.388065D-02  0.699365D-01  0.990787D-01
      4 -0.127171D+00  0.201286D-01  0.101888D-03  0.154023D+00
      5  0.528968D-02 -0.163576D-01  0.133884D-02 -0.467714D-02  0.153179D+00
      6  0.393336D-02  0.347293D-02 -0.197700D-01 -0.375669D-01 -0.122941D+00
      7 -0.322604D-01 -0.316417D-01 -0.354652D-01 -0.126431D-01  0.155769D-01
      8 -0.105578D-01 -0.512575D-01 -0.265297D-01  0.119412D-01 -0.587993D-02
      9 -0.862844D-02 -0.443818D-01 -0.702666D-01  0.673068D-02 -0.426374D-03
     10 -0.158266D-02  0.248871D-01  0.141144D-01  0.343017D-02 -0.310820D-03
     11  0.197347D-01 -0.339738D-01 -0.210429D-01  0.213947D-04 -0.171569D-02
     12  0.582748D-02 -0.178238D-01  0.952615D-03  0.311794D-02 -0.275942D-02
     13  0.332999D-02  0.580092D-02  0.283178D-02  0.262145D-02 -0.732134D-03
     14 -0.696676D-02 -0.434696D-02 -0.224896D-01 -0.425469D-03  0.532047D-03
     15 -0.827905D-02 -0.101152D-01 -0.141480D-01 -0.718417D-03  0.166803D-02
     16  0.144026D-03 -0.174822D-02  0.965321D-03 -0.673741D-04 -0.111269D-03
     17 -0.981894D-03  0.194459D-02  0.255717D-02 -0.838626D-03  0.724415D-03
     18 -0.359068D-03  0.309825D-02  0.110691D-02 -0.215536D-03  0.630051D-03
     19 -0.142444D-01 -0.103699D-01  0.135712D-01 -0.201936D-01 -0.150352D-01
     20  0.538829D-03  0.298876D-02 -0.377038D-02 -0.261499D-01 -0.130483D+00
     21  0.362507D-02 -0.418690D-02  0.304639D-02  0.285503D-01  0.122490D+00
                6             7             8             9            10 
      6  0.144943D+00
      7  0.158572D-01  0.469264D+00
      8 -0.414721D-02 -0.281896D+00  0.415724D+00
      9  0.214170D-02  0.222029D+00 -0.545620D-01  0.346173D+00
     10 -0.938342D-03 -0.284310D+00  0.265991D+00 -0.674065D-01  0.480220D+00
     11 -0.274458D-02  0.261911D+00 -0.320872D+00  0.576052D-01 -0.379276D+00
     12 -0.135299D-02 -0.699410D-01  0.630643D-01 -0.660157D-01  0.214422D+00
     13 -0.352204D-03 -0.138456D+00  0.201197D-01 -0.140205D+00 -0.121786D-01
     14  0.132636D-02  0.213619D-01 -0.365786D-01  0.274659D-01  0.155945D-01
     15  0.156985D-02 -0.142616D+00  0.313207D-01 -0.216349D+00  0.200244D-03
     16 -0.392818D-04 -0.206745D-02 -0.495893D-02 -0.114575D-01 -0.185751D+00
     17 -0.113167D-04  0.142003D-01 -0.423387D-02  0.153455D-01  0.730896D-01
     18 -0.243245D-03  0.101797D-01 -0.116680D-01  0.516445D-02 -0.160598D+00
     19  0.191061D-01  0.472896D-03 -0.639585D-03 -0.106264D-02  0.172350D-03
     20  0.125045D+00  0.487940D-03  0.309801D-02 -0.104641D-02  0.240008D-04
     21 -0.127288D+00 -0.436234D-04  0.252203D-02 -0.847679D-03  0.206099D-03
               11            12            13            14            15 
     11  0.426133D+00
     12 -0.125034D+00  0.229838D+00
     13  0.641744D-02 -0.116579D-01  0.142321D+00
     14 -0.726846D-02  0.173185D-01 -0.343232D-01  0.470214D-01
     15  0.262005D-02  0.200605D-02  0.153302D+00 -0.224257D-01  0.225362D+00
     16  0.906412D-01 -0.141727D+00  0.264503D-02  0.472645D-02 -0.208507D-02
     17 -0.617561D-01  0.648251D-01  0.306224D-02  0.844515D-03 -0.305281D-02
     18  0.887688D-01 -0.165593D+00 -0.362222D-02 -0.123026D-02  0.182823D-02
     19  0.550368D-03 -0.418116D-04 -0.282294D-03  0.326295D-04  0.196039D-03
     20 -0.547055D-03  0.408890D-03 -0.344940D-03 -0.203973D-03 -0.150475D-04
     21 -0.173005D-03  0.164378D-03 -0.297004D-03  0.347902D-04 -0.268402D-03
               16            17            18            19            20 
     16  0.185149D+00
     17 -0.885556D-01  0.626122D-01
     18  0.154441D+00 -0.794647D-01  0.157828D+00
     19 -0.518044D-04  0.240646D-04  0.174017D-03  0.341269D-01
     20  0.637291D-05 -0.135759D-03 -0.134033D-03  0.254377D-01  0.125283D+00
     21 -0.979950D-04 -0.198952D-03 -0.915166D-04 -0.319429D-01 -0.120488D+00
               21 
     21  0.125285D+00
 Leave Link  716 at Wed Aug  3 20:15:46 2016, MaxMem=    33554432 cpu:         0.1
 (Enter /home/proyectos/fulerenos/M3C-v2.0/M3C-deps_CCC/g09-AM64L-G09RevC.01/l103.exe)

 GradGradGradGradGradGradGradGradGradGradGradGradGradGradGradGradGradGrad
 Berny optimization.
 Search for a local minimum.
 Step number   1 out of a maximum of    2
 All quantities printed in internal units (Hartrees-Bohrs-Radians)
 Second derivative matrix not updated -- analytic derivatives used.
 ITU=  0
     Eigenvalues ---    0.00068   0.00533   0.01073   0.02145   0.04248
     Eigenvalues ---    0.05364   0.08579   0.12052   0.12434   0.22794
     Eigenvalues ---    0.29168   0.40086   0.47044   0.67151   1.51043
 Angle between quadratic step and forces=  77.41 degrees.
 Linear search not attempted -- first point.
 B after Tr=    -0.000648    0.000666   -0.001486
         Rot=    1.000000   -0.000451    0.000494    0.000338 Ang=  -0.09 deg.
 Variable       Old X    -DE/DX   Delta X   Delta X   Delta X     New X
                                 (Linear)    (Quad)   (Total)
    X1       -0.51379   0.00004   0.00000   0.00121   0.00060  -0.51319
    Y1       -1.05898   0.00003   0.00000   0.00425   0.00595  -1.05303
    Z1       -0.75647  -0.00002   0.00000  -0.00451  -0.00745  -0.76393
    X2        3.32129  -0.00002   0.00000   0.00020  -0.00047   3.32082
    Y2       -1.69507  -0.00004   0.00000  -0.00405  -0.00460  -1.69967
    Z2       -1.13862   0.00004   0.00000   0.00295   0.00322  -1.13540
    X3       -0.68870  -0.00002   0.00000   0.00120   0.00001  -0.68869
    Y3        1.45051  -0.00000   0.00000   0.00300   0.00273   1.45324
    Z3        1.54809   0.00004   0.00000  -0.00300  -0.00386   1.54423
    X4       -2.28900  -0.00001   0.00000  -0.00467  -0.00436  -2.29336
    Y4        3.29202  -0.00000   0.00000  -0.00118  -0.00012   3.29191
    Z4        1.27557  -0.00003   0.00000   0.00391   0.00313   1.27870
    X5        0.54369   0.00001   0.00000   0.00799   0.00504   0.54873
    Y5        1.21709   0.00000   0.00000   0.00548   0.00293   1.22001
    Z5        3.16809  -0.00002   0.00000  -0.00779  -0.00763   3.16046
    X6       -3.68188   0.00000   0.00000  -0.01190  -0.00984  -3.69172
    Y6        3.97781   0.00000   0.00000  -0.00294   0.00024   3.97805
    Z6       -0.03735   0.00002   0.00000   0.01081   0.00926  -0.02809
    X7        3.83959  -0.00001   0.00000   0.00676   0.00902   3.84860
    Y7        0.05703   0.00000   0.00000  -0.00783  -0.00714   0.04989
    Z7       -2.91359  -0.00003   0.00000   0.00098   0.00334  -2.91025
         Item               Value     Threshold  Converged?
 Maximum Force            0.000045     0.000450     YES
 RMS     Force            0.000024     0.000300     YES
 Maximum Displacement     0.009839     0.001800     NO 
 RMS     Displacement     0.005312     0.001200     NO 
 Predicted change in Energy=-2.854237D-07
 GradGradGradGradGradGradGradGradGradGradGradGradGradGradGradGradGradGrad

 Leave Link  103 at Wed Aug  3 20:15:46 2016, MaxMem=    33554432 cpu:         0.1
 (Enter /home/proyectos/fulerenos/M3C-v2.0/M3C-deps_CCC/g09-AM64L-G09RevC.01/l9999.exe)
 1\1\GINC-DEPAZ28\Freq\UB3LYP\6-311++G(3df,2p)\C2H3S2(2)\NAGUIRRE\03-Au
 g-2016\0\\#p b3lyp/6-311++G(3df,2p) freq\\b3lyp opt\\0,2\S,-0.271886,-
 0.560388,-0.400309\S,1.757553,-0.896992,-0.60253\C,-0.364442,0.767575,
 0.819214\C,-1.211289,1.742064,0.675003\H,0.287707,0.644055,1.676483\H,
 -1.948367,2.104964,-0.019764\H,2.031821,0.03018,-1.541806\\Version=EM6
 4L-G09RevE.01\State=2-A\HF=-874.3879139\S2=0.760637\S2-1=0.\S2A=0.7500
 7\RMSD=5.914e-09\RMSF=2.361e-05\ZeroPoint=0.0388954\Thermal=0.0445772\
 Dipole=0.0350295,0.3761033,-0.1375873\DipoleDeriv=0.241592,-0.1067447,
 -0.1235071,0.0783478,-0.0790242,0.0476696,-0.1336005,0.1159351,0.00320
 32,-0.1131033,0.0768461,0.0688588,-0.1062826,-0.0038322,-0.0975118,0.0
 30469,-0.1720209,-0.0804279,-0.1711373,-0.1134467,0.0491643,-0.1237028
 ,0.1685141,0.1518908,0.0152321,0.144378,0.0546777,-0.1529988,0.0088733
 ,0.08647,0.1349449,-0.3891447,-0.1174225,0.2323836,-0.1857844,-0.17567
 24,0.1140092,0.0192024,-0.0771388,0.0764232,0.0392789,-0.0559845,-0.06
 25262,-0.0295857,0.0394687,0.1543573,0.0361372,-0.0402355,-0.0480534,0
 .2370919,-0.0077789,-0.1213316,0.0676199,0.1115114,-0.0727191,0.079132
 5,0.0363883,-0.0116772,0.0271161,0.0791372,0.0393736,0.059458,0.047239
 2\Polar=82.2756795,-20.6819006,74.8788079,-9.6849997,11.190684,59.3940
 059\PG=C01 [X(C2H3S2)]\NImag=0\\0.17178423,-0.00705680,0.10100244,0.00
 388065,0.06993652,0.09907875,-0.12717074,0.02012855,0.00010189,0.15402
 318,0.00528968,-0.01635759,0.00133884,-0.00467714,0.15317932,0.0039333
 6,0.00347293,-0.01977004,-0.03756686,-0.12294071,0.14494301,-0.0322604
 1,-0.03164168,-0.03546524,-0.01264306,0.01557693,0.01585723,0.46926427
 ,-0.01055775,-0.05125746,-0.02652971,0.01194116,-0.00587993,-0.0041472
 1,-0.28189599,0.41572417,-0.00862844,-0.04438180,-0.07026661,0.0067306
 8,-0.00042637,0.00214170,0.22202913,-0.05456199,0.34617316,-0.00158266
 ,0.02488713,0.01411444,0.00343017,-0.00031082,-0.00093834,-0.28430991,
 0.26599143,-0.06740649,0.48022003,0.01973471,-0.03397378,-0.02104288,0
 .00002139,-0.00171569,-0.00274458,0.26191062,-0.32087232,0.05760517,-0
 .37927576,0.42613338,0.00582748,-0.01782378,0.00095261,0.00311794,-0.0
 0275942,-0.00135299,-0.06994105,0.06306426,-0.06601568,0.21442223,-0.1
 2503352,0.22983841,0.00332999,0.00580092,0.00283178,0.00262145,-0.0007
 3213,-0.00035220,-0.13845635,0.02011966,-0.14020477,-0.01217861,0.0064
 1744,-0.01165795,0.14232078,-0.00696676,-0.00434696,-0.02248956,-0.000
 42547,0.00053205,0.00132636,0.02136189,-0.03657860,0.02746587,0.015594
 45,-0.00726846,0.01731847,-0.03432319,0.04702143,-0.00827905,-0.010115
 21,-0.01414802,-0.00071842,0.00166803,0.00156985,-0.14261612,0.0313206
 7,-0.21634934,0.00020024,0.00262005,0.00200605,0.15330237,-0.02242568,
 0.22536163,0.00014403,-0.00174822,0.00096532,-0.00006737,-0.00011127,-
 0.00003928,-0.00206745,-0.00495893,-0.01145747,-0.18575137,0.09064124,
 -0.14172684,0.00264503,0.00472645,-0.00208507,0.18514894,-0.00098189,0
 .00194459,0.00255717,-0.00083863,0.00072442,-0.00001132,0.01420028,-0.
 00423387,0.01534554,0.07308957,-0.06175607,0.06482510,0.00306224,0.000
 84452,-0.00305281,-0.08855564,0.06261219,-0.00035907,0.00309825,0.0011
 0691,-0.00021554,0.00063005,-0.00024325,0.01017965,-0.01166804,0.00516
 445,-0.16059818,0.08876877,-0.16559277,-0.00362222,-0.00123026,0.00182
 823,0.15444134,-0.07946473,0.15782794,-0.01424444,-0.01036990,0.013571
 16,-0.02019364,-0.01503524,0.01910609,0.00047290,-0.00063959,-0.001062
 64,0.00017235,0.00055037,-0.00004181,-0.00028229,0.00003263,0.00019604
 ,-0.00005180,0.00002406,0.00017402,0.03412693,0.00053883,0.00298876,-0
 .00377038,-0.02614987,-0.13048258,0.12504452,0.00048794,0.00309801,-0.
 00104641,0.00002400,-0.00054705,0.00040889,-0.00034494,-0.00020397,-0.
 00001505,0.00000637,-0.00013576,-0.00013403,0.02543767,0.12528260,0.00
 362507,-0.00418690,0.00304639,0.02855031,0.12248958,-0.12728829,-0.000
 04362,0.00252203,-0.00084768,0.00020610,-0.00017301,0.00016438,-0.0002
 9700,0.00003479,-0.00026840,-0.00009799,-0.00019895,-0.00009152,-0.031
 94286,-0.12048754,0.12528512\\-0.00003671,-0.00003336,0.00002437,0.000
 01679,0.00003585,-0.00004481,0.00001728,0.00000434,-0.00004187,0.00000
 773,0.00000091,0.00003040,-0.00001441,-0.00000358,0.00001525,-0.000002
 41,-0.00000206,-0.00001697,0.00001172,-0.00000210,0.00003362\\\@


 "PERFECTION IS NOT AN ACCIDENT"
         --  EAGLE ELECTRIC MANUFACTURING CO.,INC. NY
 Job cpu time:       0 days  0 hours 19 minutes 56.3 seconds.
 File lengths (MBytes):  RWF=     61 Int=      0 D2E=      0 Chk=      4 Scr=      1
 Normal termination of Gaussian 09 at Wed Aug  3 20:15:46 2016.
