 Entering Gaussian System, Link 0=/home/proyectos/fulerenos/M3C-v2.0/M3C-deps_CCC/g09-AM64L-G09RevC.01/g09
 Initial command:
 /home/proyectos/fulerenos/M3C-v2.0/M3C-deps_CCC/g09-AM64L-G09RevC.01/l1.exe "/scratch/naguirre/gaussian/Gau-19852.inp" -scrdir="/scratch/naguirre/gaussian/"
 Entering Link 1 = /home/proyectos/fulerenos/M3C-v2.0/M3C-deps_CCC/g09-AM64L-G09RevC.01/l1.exe PID=     19854.
  
 Copyright (c) 1988,1990,1992,1993,1995,1998,2003,2009,2015,
            Gaussian, Inc.  All Rights Reserved.
  
 This is part of the Gaussian(R) 09 program.  It is based on
 the Gaussian(R) 03 system (copyright 2003, Gaussian, Inc.),
 the Gaussian(R) 98 system (copyright 1998, Gaussian, Inc.),
 the Gaussian(R) 94 system (copyright 1995, Gaussian, Inc.),
 the Gaussian 92(TM) system (copyright 1992, Gaussian, Inc.),
 the Gaussian 90(TM) system (copyright 1990, Gaussian, Inc.),
 the Gaussian 88(TM) system (copyright 1988, Gaussian, Inc.),
 the Gaussian 86(TM) system (copyright 1986, Carnegie Mellon
 University), and the Gaussian 82(TM) system (copyright 1983,
 Carnegie Mellon University). Gaussian is a federally registered
 trademark of Gaussian, Inc.
  
 This software contains proprietary and confidential information,
 including trade secrets, belonging to Gaussian, Inc.
  
 This software is provided under written license and may be
 used, copied, transmitted, or stored only in accord with that
 written license.
  
 The following legend is applicable only to US Government
 contracts under FAR:
  
                    RESTRICTED RIGHTS LEGEND
  
 Use, reproduction and disclosure by the US Government is
 subject to restrictions as set forth in subparagraphs (a)
 and (c) of the Commercial Computer Software - Restricted
 Rights clause in FAR 52.227-19.
  
 Gaussian, Inc.
 340 Quinnipiac St., Bldg. 40, Wallingford CT 06492
  
  
 ---------------------------------------------------------------
 Warning -- This program may not be used in any manner that
 competes with the business of Gaussian, Inc. or will provide
 assistance to any competitor of Gaussian, Inc.  The licensee
 of this program is prohibited from giving any competitor of
 Gaussian, Inc. access to this program.  By using this program,
 the user acknowledges that Gaussian, Inc. is engaged in the
 business of creating and licensing software in the field of
 computational chemistry and represents and warrants to the
 licensee that it is not a competitor of Gaussian, Inc. and that
 it will not use this program in any manner prohibited above.
 ---------------------------------------------------------------
  

 Cite this work as:
 Gaussian 09, Revision E.01,
 M. J. Frisch, G. W. Trucks, H. B. Schlegel, G. E. Scuseria, 
 M. A. Robb, J. R. Cheeseman, G. Scalmani, V. Barone, B. Mennucci, 
 G. A. Petersson, H. Nakatsuji, M. Caricato, X. Li, H. P. Hratchian, 
 A. F. Izmaylov, J. Bloino, G. Zheng, J. L. Sonnenberg, M. Hada, 
 M. Ehara, K. Toyota, R. Fukuda, J. Hasegawa, M. Ishida, T. Nakajima, 
 Y. Honda, O. Kitao, H. Nakai, T. Vreven, J. A. Montgomery, Jr., 
 J. E. Peralta, F. Ogliaro, M. Bearpark, J. J. Heyd, E. Brothers, 
 K. N. Kudin, V. N. Staroverov, T. Keith, R. Kobayashi, J. Normand, 
 K. Raghavachari, A. Rendell, J. C. Burant, S. S. Iyengar, J. Tomasi, 
 M. Cossi, N. Rega, J. M. Millam, M. Klene, J. E. Knox, J. B. Cross, 
 V. Bakken, C. Adamo, J. Jaramillo, R. Gomperts, R. E. Stratmann, 
 O. Yazyev, A. J. Austin, R. Cammi, C. Pomelli, J. W. Ochterski, 
 R. L. Martin, K. Morokuma, V. G. Zakrzewski, G. A. Voth, 
 P. Salvador, J. J. Dannenberg, S. Dapprich, A. D. Daniels, 
 O. Farkas, J. B. Foresman, J. V. Ortiz, J. Cioslowski, 
 and D. J. Fox, Gaussian, Inc., Wallingford CT, 2013.
 
 ******************************************
 Gaussian 09:  EM64L-G09RevE.01 30-Nov-2015
                 3-Aug-2016 
 ******************************************
 %NProcShared=4
 Will use up to    4 processors via shared memory.
 ------------------------------
 #p b3lyp/6-311++G(3df,2p) freq
 ------------------------------
 1/10=4,30=1,38=1/1,3;
 2/12=2,17=6,18=5,40=1/2;
 3/5=4,6=6,7=1216,11=2,16=1,25=1,30=1,71=2,74=-5,140=1/1,2,3;
 4//1;
 5/5=2,38=5,98=1/2;
 8/6=4,10=90,11=11/1;
 11/6=1,8=1,9=11,15=111,16=1/1,2,10;
 10/6=1/2;
 6/7=2,8=2,9=2,10=2,18=1,28=1/1;
 7/8=1,10=1,25=1/1,2,3,16;
 1/10=4,30=1/3;
 99//99;
 Leave Link    1 at Wed Aug  3 21:11:11 2016, MaxMem=           0 cpu:         0.2
 (Enter /home/proyectos/fulerenos/M3C-v2.0/M3C-deps_CCC/g09-AM64L-G09RevC.01/l101.exe)
 ---------
 b3lyp opt
 ---------
 Symbolic Z-matrix:
 Charge =  1 Multiplicity = 1
 S                    -0.16819   0.17896   0.86513 
 S                    -2.10103  -0.64747   1.04455 
 C                     0.59537   1.43321   0.24921 
 H                     0.67571  -0.48546   1.68001 
 H                    -1.96703  -1.34375  -0.10617 
 H                     0.03616   2.11967  -0.39113 
 
 NAtoms=      6 NQM=        6 NQMF=       0 NMMI=      0 NMMIF=      0
                NMic=       0 NMicF=      0.
                    Isotopes and Nuclear Properties:
 (Nuclear quadrupole moments (NQMom) in fm**2, nuclear magnetic moments (NMagM)
  in nuclear magnetons)

  Atom         1           2           3           4           5           6
 IAtWgt=          32          32          12           1           1           1
 AtmWgt=  31.9720718  31.9720718  12.0000000   1.0078250   1.0078250   1.0078250
 NucSpn=           0           0           0           1           1           1
 AtZEff=   0.0000000   0.0000000   0.0000000   0.0000000   0.0000000   0.0000000
 NQMom=    0.0000000   0.0000000   0.0000000   0.0000000   0.0000000   0.0000000
 NMagM=    0.0000000   0.0000000   0.0000000   2.7928460   2.7928460   2.7928460
 AtZNuc=  16.0000000  16.0000000   6.0000000   1.0000000   1.0000000   1.0000000
 Leave Link  101 at Wed Aug  3 21:11:11 2016, MaxMem=    33554432 cpu:         0.3
 (Enter /home/proyectos/fulerenos/M3C-v2.0/M3C-deps_CCC/g09-AM64L-G09RevC.01/l103.exe)

 GradGradGradGradGradGradGradGradGradGradGradGradGradGradGradGradGradGrad
 Berny optimization.
 Initialization pass.
 Trust Radius=3.00D-01 FncErr=1.00D-07 GrdErr=1.00D-07
 Number of steps in this run=      2 maximum allowed number of steps=      2.
 GradGradGradGradGradGradGradGradGradGradGradGradGradGradGradGradGradGrad

 Leave Link  103 at Wed Aug  3 21:11:11 2016, MaxMem=    33554432 cpu:         0.1
 (Enter /home/proyectos/fulerenos/M3C-v2.0/M3C-deps_CCC/g09-AM64L-G09RevC.01/l202.exe)
                          Input orientation:                          
 ---------------------------------------------------------------------
 Center     Atomic      Atomic             Coordinates (Angstroms)
 Number     Number       Type             X           Y           Z
 ---------------------------------------------------------------------
      1         16           0       -0.168187    0.178963    0.865125
      2         16           0       -2.101033   -0.647466    1.044545
      3          6           0        0.595368    1.433207    0.249208
      4          1           0        0.675709   -0.485462    1.680008
      5          1           0       -1.967029   -1.343753   -0.106166
      6          1           0        0.036160    2.119674   -0.391125
 ---------------------------------------------------------------------
                    Distance matrix (angstroms):
                    1          2          3          4          5
     1  S    0.000000
     2  S    2.109756   0.000000
     3  C    1.592325   3.497476   0.000000
     4  H    1.348204   2.853131   2.394772   0.000000
     5  H    2.549098   1.351632   3.795218   3.303202   0.000000
     6  H    2.320836   3.779657   1.092692   3.389004   4.011146
                    6
     6  H    0.000000
 Stoichiometry    CH3S2(1+)
 Framework group  C1[X(CH3S2)]
 Deg. of freedom    12
 Full point group                 C1      NOp   1
 Largest Abelian subgroup         C1      NOp   1
 Largest concise Abelian subgroup C1      NOp   1
                         Standard orientation:                         
 ---------------------------------------------------------------------
 Center     Atomic      Atomic             Coordinates (Angstroms)
 Number     Number       Type             X           Y           Z
 ---------------------------------------------------------------------
      1         16           0        0.607078    0.302283    0.028229
      2         16           0       -1.452328   -0.140228   -0.090508
      3          6           0        2.034888   -0.400395   -0.027458
      4          1           0        0.778120    1.638087   -0.035249
      5          1           0       -1.540483   -0.336512    1.243887
      6          1           0        2.077036   -1.492092   -0.047424
 ---------------------------------------------------------------------
 Rotational constants (GHZ):     40.9708021      3.6601120      3.4421395
 Leave Link  202 at Wed Aug  3 21:11:11 2016, MaxMem=    33554432 cpu:         0.0
 (Enter /home/proyectos/fulerenos/M3C-v2.0/M3C-deps_CCC/g09-AM64L-G09RevC.01/l301.exe)
 Standard basis: 6-311++G(3df,2p) (5D, 7F)
 Ernie: Thresh=  0.10000D-02 Tol=  0.10000D-05 Strict=F.
 There are   181 symmetry adapted cartesian basis functions of A   symmetry.
 There are   163 symmetry adapted basis functions of A   symmetry.
   163 basis functions,   238 primitive gaussians,   181 cartesian basis functions
    20 alpha electrons       20 beta electrons
       nuclear repulsion energy       140.8776597909 Hartrees.
 IExCor=  402 DFT=T Ex+Corr=B3LYP ExCW=0 ScaHFX=  0.200000
 ScaDFX=  0.800000  0.720000  1.000000  0.810000 ScalE2=  1.000000  1.000000
 IRadAn=      0 IRanWt=     -1 IRanGd=            0 ICorTp=0 IEmpDi=  4
 NAtoms=    6 NActive=    6 NUniq=    6 SFac= 1.00D+00 NAtFMM=   60 NAOKFM=F Big=F
 Integral buffers will be    131072 words long.
 Raffenetti 2 integral format.
 Two-electron integral symmetry is turned on.
 Leave Link  301 at Wed Aug  3 21:11:11 2016, MaxMem=    33554432 cpu:         0.2
 (Enter /home/proyectos/fulerenos/M3C-v2.0/M3C-deps_CCC/g09-AM64L-G09RevC.01/l302.exe)
 NPDir=0 NMtPBC=     1 NCelOv=     1 NCel=       1 NClECP=     1 NCelD=      1
         NCelK=      1 NCelE2=     1 NClLst=     1 CellRange=     0.0.
 One-electron integrals computed using PRISM.
 NBasis=   163 RedAO= T EigKep=  1.79D-04  NBF=   163
 NBsUse=   163 1.00D-06 EigRej= -1.00D+00 NBFU=   163
 Precomputing XC quadrature grid using
 IXCGrd= 4 IRadAn=           0 IRanWt=          -1 IRanGd=           0 AccXCQ= 0.00D+00.
 Generated NRdTot=       0 NPtTot=           0 NUsed=           0 NTot=          32
 NSgBfM=   179   179   179   179   179 MxSgAt=     6 MxSgA2=     6.
 Leave Link  302 at Wed Aug  3 21:11:12 2016, MaxMem=    33554432 cpu:         0.8
 (Enter /home/proyectos/fulerenos/M3C-v2.0/M3C-deps_CCC/g09-AM64L-G09RevC.01/l303.exe)
 DipDrv:  MaxL=1.
 Leave Link  303 at Wed Aug  3 21:11:12 2016, MaxMem=    33554432 cpu:         0.1
 (Enter /home/proyectos/fulerenos/M3C-v2.0/M3C-deps_CCC/g09-AM64L-G09RevC.01/l401.exe)
 ExpMin= 3.60D-02 ExpMax= 9.34D+04 ExpMxC= 3.17D+03 IAcc=3 IRadAn=         5 AccDes= 0.00D+00
 Harris functional with IExCor=  402 and IRadAn=       5 diagonalized for initial guess.
 HarFok:  IExCor=  402 AccDes= 0.00D+00 IRadAn=         5 IDoV= 1 UseB2=F ITyADJ=14
 ICtDFT=  3500011 ScaDFX=  1.000000  1.000000  1.000000  1.000000
 FoFCou: FMM=F IPFlag=           0 FMFlag=      100000 FMFlg1=           0
         NFxFlg=           0 DoJE=T BraDBF=F KetDBF=T FulRan=T
         wScrn=  0.000000 ICntrl=     500 IOpCl=  0 I1Cent=   200000004 NGrid=           0
         NMat0=    1 NMatS0=      1 NMatT0=    0 NMatD0=    1 NMtDS0=    0 NMtDT0=    0
 Petite list used in FoFCou.
 Harris En= -835.950314905281    
 JPrj=0 DoOrth=F DoCkMO=F.
 Leave Link  401 at Wed Aug  3 21:11:13 2016, MaxMem=    33554432 cpu:         3.0
 (Enter /home/proyectos/fulerenos/M3C-v2.0/M3C-deps_CCC/g09-AM64L-G09RevC.01/l502.exe)
 Closed shell SCF:
 Using DIIS extrapolation, IDIIS=  1040.
 Integral symmetry usage will be decided dynamically.
 IVT=      119239 IEndB=      119239 NGot=    33554432 MDV=    33484776
 LenX=    33484776 LenY=    33451574
 Requested convergence on RMS density matrix=1.00D-08 within 128 cycles.
 Requested convergence on MAX density matrix=1.00D-06.
 Requested convergence on             energy=1.00D-06.
 No special actions if energy rises.
 Fock matrices will be formed incrementally for  20 cycles.

 Cycle   1  Pass 1  IDiag  1:
 FoFJK:  IHMeth= 1 ICntrl=       0 DoSepK=F KAlg= 0 I1Cent=   0 FoldK=F
 IRaf= 970000000 NMat=   1 IRICut=       1 DoRegI=T DoRafI=F ISym2E= 0.
 FoFCou: FMM=F IPFlag=           0 FMFlag=      100000 FMFlg1=           0
         NFxFlg=           0 DoJE=F BraDBF=F KetDBF=F FulRan=T
         wScrn=  0.000000 ICntrl=       0 IOpCl=  0 I1Cent=           0 NGrid=           0
         NMat0=    1 NMatS0=      1 NMatT0=    0 NMatD0=    1 NMtDS0=    0 NMtDT0=    0
 Symmetry not used in FoFCou.
 E= -835.746291655063    
 DIIS: error= 2.63D-02 at cycle   1 NSaved=   1.
 NSaved= 1 IEnMin= 1 EnMin= -835.746291655063     IErMin= 1 ErrMin= 2.63D-02
 ErrMax= 2.63D-02  0.00D+00 EMaxC= 1.00D-01 BMatC= 1.97D-01 BMatP= 1.97D-01
 IDIUse=3 WtCom= 7.37D-01 WtEn= 2.63D-01
 Coeff-Com:  0.100D+01
 Coeff-En:   0.100D+01
 Coeff:      0.100D+01
 Gap=     0.244 Goal=   None    Shift=    0.000
 GapD=    0.244 DampG=1.000 DampE=0.500 DampFc=0.5000 IDamp=-1.
 Damping current iteration by 5.00D-01
 RMSDP=7.72D-03 MaxDP=2.95D-01              OVMax= 7.20D-01

 Cycle   2  Pass 1  IDiag  1:
 RMSU=  3.86D-03    CP:  1.01D+00
 E= -835.646883775539     Delta-E=        0.099407879525 Rises=F Damp=T
 DIIS: error= 2.15D-02 at cycle   2 NSaved=   2.
 NSaved= 2 IEnMin= 1 EnMin= -835.746291655063     IErMin= 2 ErrMin= 2.15D-02
 ErrMax= 2.15D-02  0.00D+00 EMaxC= 1.00D-01 BMatC= 9.21D-02 BMatP= 1.97D-01
 IDIUse=3 WtCom= 7.85D-01 WtEn= 2.15D-01
 Coeff-Com:  0.387D+00 0.613D+00
 Coeff-En:   0.616D+00 0.384D+00
 Coeff:      0.436D+00 0.564D+00
 Gap=     0.103 Goal=   None    Shift=    0.000
 RMSDP=3.10D-03 MaxDP=1.37D-01 DE= 9.94D-02 OVMax= 6.39D-01

 Cycle   3  Pass 1  IDiag  1:
 RMSU=  1.64D-03    CP:  1.01D+00  3.19D-01
 E= -835.893915594521     Delta-E=       -0.247031818983 Rises=F Damp=F
 DIIS: error= 1.10D-02 at cycle   3 NSaved=   3.
 NSaved= 3 IEnMin= 3 EnMin= -835.893915594521     IErMin= 3 ErrMin= 1.10D-02
 ErrMax= 1.10D-02  0.00D+00 EMaxC= 1.00D-01 BMatC= 2.69D-02 BMatP= 9.21D-02
 IDIUse=3 WtCom= 8.90D-01 WtEn= 1.10D-01
 Coeff-Com:  0.165D+00 0.350D+00 0.485D+00
 Coeff-En:   0.000D+00 0.000D+00 0.100D+01
 Coeff:      0.147D+00 0.311D+00 0.542D+00
 Gap=     0.177 Goal=   None    Shift=    0.000
 RMSDP=1.46D-03 MaxDP=6.26D-02 DE=-2.47D-01 OVMax= 1.25D-01

 Cycle   4  Pass 1  IDiag  1:
 RMSU=  1.12D-03    CP:  1.01D+00  3.69D-01  4.39D-01
 E= -835.924299323009     Delta-E=       -0.030383728488 Rises=F Damp=F
 DIIS: error= 5.36D-03 at cycle   4 NSaved=   4.
 NSaved= 4 IEnMin= 4 EnMin= -835.924299323009     IErMin= 4 ErrMin= 5.36D-03
 ErrMax= 5.36D-03  0.00D+00 EMaxC= 1.00D-01 BMatC= 7.19D-03 BMatP= 2.69D-02
 IDIUse=3 WtCom= 9.46D-01 WtEn= 5.36D-02
 Coeff-Com: -0.708D-02 0.696D-01 0.334D+00 0.603D+00
 Coeff-En:   0.000D+00 0.000D+00 0.196D+00 0.804D+00
 Coeff:     -0.670D-02 0.659D-01 0.327D+00 0.614D+00
 Gap=     0.153 Goal=   None    Shift=    0.000
 RMSDP=5.08D-04 MaxDP=2.20D-02 DE=-3.04D-02 OVMax= 3.88D-02

 Cycle   5  Pass 1  IDiag  1:
 RMSU=  2.12D-04    CP:  1.01D+00  3.67D-01  6.40D-01  7.11D-01
 E= -835.932174420888     Delta-E=       -0.007875097879 Rises=F Damp=F
 DIIS: error= 5.01D-04 at cycle   5 NSaved=   5.
 NSaved= 5 IEnMin= 5 EnMin= -835.932174420888     IErMin= 5 ErrMin= 5.01D-04
 ErrMax= 5.01D-04  0.00D+00 EMaxC= 1.00D-01 BMatC= 1.08D-04 BMatP= 7.19D-03
 IDIUse=3 WtCom= 9.95D-01 WtEn= 5.01D-03
 Coeff-Com: -0.106D-01 0.179D-02 0.531D-01 0.160D+00 0.796D+00
 Coeff-En:   0.000D+00 0.000D+00 0.000D+00 0.000D+00 0.100D+01
 Coeff:     -0.106D-01 0.178D-02 0.529D-01 0.159D+00 0.797D+00
 Gap=     0.151 Goal=   None    Shift=    0.000
 RMSDP=7.55D-05 MaxDP=2.10D-03 DE=-7.88D-03 OVMax= 5.27D-03

 Cycle   6  Pass 1  IDiag  1:
 RMSU=  6.19D-05    CP:  1.01D+00  3.63D-01  6.37D-01  7.43D-01  9.11D-01
 E= -835.932268491631     Delta-E=       -0.000094070743 Rises=F Damp=F
 DIIS: error= 1.75D-04 at cycle   6 NSaved=   6.
 NSaved= 6 IEnMin= 6 EnMin= -835.932268491631     IErMin= 6 ErrMin= 1.75D-04
 ErrMax= 1.75D-04  0.00D+00 EMaxC= 1.00D-01 BMatC= 1.05D-05 BMatP= 1.08D-04
 IDIUse=3 WtCom= 9.98D-01 WtEn= 1.75D-03
 Coeff-Com: -0.121D-02-0.275D-02-0.246D-02 0.119D-01 0.261D+00 0.733D+00
 Coeff-En:   0.000D+00 0.000D+00 0.000D+00 0.000D+00 0.000D+00 0.100D+01
 Coeff:     -0.121D-02-0.274D-02-0.246D-02 0.119D-01 0.261D+00 0.734D+00
 Gap=     0.151 Goal=   None    Shift=    0.000
 RMSDP=2.47D-05 MaxDP=8.31D-04 DE=-9.41D-05 OVMax= 2.24D-03

 Cycle   7  Pass 1  IDiag  1:
 RMSU=  1.59D-05    CP:  1.01D+00  3.61D-01  6.40D-01  7.37D-01  9.74D-01
                    CP:  8.99D-01
 E= -835.932279066660     Delta-E=       -0.000010575029 Rises=F Damp=F
 DIIS: error= 5.75D-05 at cycle   7 NSaved=   7.
 NSaved= 7 IEnMin= 7 EnMin= -835.932279066660     IErMin= 7 ErrMin= 5.75D-05
 ErrMax= 5.75D-05  0.00D+00 EMaxC= 1.00D-01 BMatC= 6.30D-07 BMatP= 1.05D-05
 IDIUse=1 WtCom= 1.00D+00 WtEn= 0.00D+00
 Coeff-Com:  0.101D-03-0.513D-03-0.511D-02-0.470D-02 0.164D-01 0.184D+00
 Coeff-Com:  0.810D+00
 Coeff:      0.101D-03-0.513D-03-0.511D-02-0.470D-02 0.164D-01 0.184D+00
 Coeff:      0.810D+00
 Gap=     0.151 Goal=   None    Shift=    0.000
 RMSDP=5.45D-06 MaxDP=1.61D-04 DE=-1.06D-05 OVMax= 6.10D-04

 Cycle   8  Pass 1  IDiag  1:
 RMSU=  2.75D-06    CP:  1.01D+00  3.61D-01  6.40D-01  7.40D-01  9.77D-01
                    CP:  9.54D-01  1.04D+00
 E= -835.932279990279     Delta-E=       -0.000000923620 Rises=F Damp=F
 DIIS: error= 8.42D-06 at cycle   8 NSaved=   8.
 NSaved= 8 IEnMin= 8 EnMin= -835.932279990279     IErMin= 8 ErrMin= 8.42D-06
 ErrMax= 8.42D-06  0.00D+00 EMaxC= 1.00D-01 BMatC= 3.28D-08 BMatP= 6.30D-07
 IDIUse=1 WtCom= 1.00D+00 WtEn= 0.00D+00
 Coeff-Com:  0.966D-04-0.755D-04-0.169D-02-0.202D-02-0.926D-02 0.184D-01
 Coeff-Com:  0.233D+00 0.762D+00
 Coeff:      0.966D-04-0.755D-04-0.169D-02-0.202D-02-0.926D-02 0.184D-01
 Coeff:      0.233D+00 0.762D+00
 Gap=     0.151 Goal=   None    Shift=    0.000
 RMSDP=1.65D-06 MaxDP=6.17D-05 DE=-9.24D-07 OVMax= 1.00D-04

 Cycle   9  Pass 1  IDiag  1:
 RMSU=  1.01D-06    CP:  1.01D+00  3.61D-01  6.40D-01  7.40D-01  9.79D-01
                    CP:  9.62D-01  1.09D+00  7.92D-01
 E= -835.932280028069     Delta-E=       -0.000000037790 Rises=F Damp=F
 DIIS: error= 4.11D-06 at cycle   9 NSaved=   9.
 NSaved= 9 IEnMin= 9 EnMin= -835.932280028069     IErMin= 9 ErrMin= 4.11D-06
 ErrMax= 4.11D-06  0.00D+00 EMaxC= 1.00D-01 BMatC= 3.01D-09 BMatP= 3.28D-08
 IDIUse=1 WtCom= 1.00D+00 WtEn= 0.00D+00
 Coeff-Com:  0.101D-04 0.173D-04-0.667D-04-0.139D-03-0.301D-02-0.942D-02
 Coeff-Com: -0.127D-01 0.253D+00 0.773D+00
 Coeff:      0.101D-04 0.173D-04-0.667D-04-0.139D-03-0.301D-02-0.942D-02
 Coeff:     -0.127D-01 0.253D+00 0.773D+00
 Gap=     0.151 Goal=   None    Shift=    0.000
 RMSDP=5.30D-07 MaxDP=1.28D-05 DE=-3.78D-08 OVMax= 4.23D-05

 Cycle  10  Pass 1  IDiag  1:
 RMSU=  2.41D-07    CP:  1.01D+00  3.61D-01  6.40D-01  7.40D-01  9.80D-01
                    CP:  9.64D-01  1.09D+00  9.19D-01  8.99D-01
 E= -835.932280032457     Delta-E=       -0.000000004388 Rises=F Damp=F
 DIIS: error= 8.25D-07 at cycle  10 NSaved=  10.
 NSaved=10 IEnMin=10 EnMin= -835.932280032457     IErMin=10 ErrMin= 8.25D-07
 ErrMax= 8.25D-07  0.00D+00 EMaxC= 1.00D-01 BMatC= 2.22D-10 BMatP= 3.01D-09
 IDIUse=1 WtCom= 1.00D+00 WtEn= 0.00D+00
 Coeff-Com: -0.267D-05 0.147D-04 0.576D-04 0.602D-04-0.852D-03-0.494D-02
 Coeff-Com: -0.158D-01 0.398D-01 0.262D+00 0.720D+00
 Coeff:     -0.267D-05 0.147D-04 0.576D-04 0.602D-04-0.852D-03-0.494D-02
 Coeff:     -0.158D-01 0.398D-01 0.262D+00 0.720D+00
 Gap=     0.151 Goal=   None    Shift=    0.000
 RMSDP=1.12D-07 MaxDP=2.86D-06 DE=-4.39D-09 OVMax= 8.70D-06

 Cycle  11  Pass 1  IDiag  1:
 RMSU=  7.14D-08    CP:  1.01D+00  3.61D-01  6.40D-01  7.40D-01  9.80D-01
                    CP:  9.65D-01  1.10D+00  9.23D-01  9.62D-01  8.94D-01
 E= -835.932280032711     Delta-E=       -0.000000000254 Rises=F Damp=F
 DIIS: error= 3.40D-07 at cycle  11 NSaved=  11.
 NSaved=11 IEnMin=11 EnMin= -835.932280032711     IErMin=11 ErrMin= 3.40D-07
 ErrMax= 3.40D-07  0.00D+00 EMaxC= 1.00D-01 BMatC= 2.50D-11 BMatP= 2.22D-10
 IDIUse=1 WtCom= 1.00D+00 WtEn= 0.00D+00
 Coeff-Com: -0.376D-05 0.571D-05 0.194D-04 0.428D-04 0.423D-04-0.479D-03
 Coeff-Com: -0.265D-02-0.134D-01 0.106D-01 0.266D+00 0.740D+00
 Coeff:     -0.376D-05 0.571D-05 0.194D-04 0.428D-04 0.423D-04-0.479D-03
 Coeff:     -0.265D-02-0.134D-01 0.106D-01 0.266D+00 0.740D+00
 Gap=     0.151 Goal=   None    Shift=    0.000
 RMSDP=3.15D-08 MaxDP=8.51D-07 DE=-2.54D-10 OVMax= 2.49D-06

 Cycle  12  Pass 1  IDiag  1:
 RMSU=  1.92D-08    CP:  1.01D+00  3.61D-01  6.40D-01  7.40D-01  9.80D-01
                    CP:  9.65D-01  1.10D+00  9.24D-01  9.74D-01  9.64D-01
                    CP:  8.94D-01
 E= -835.932280032734     Delta-E=       -0.000000000023 Rises=F Damp=F
 DIIS: error= 7.93D-08 at cycle  12 NSaved=  12.
 NSaved=12 IEnMin=12 EnMin= -835.932280032734     IErMin=12 ErrMin= 7.93D-08
 ErrMax= 7.93D-08  0.00D+00 EMaxC= 1.00D-01 BMatC= 1.87D-12 BMatP= 2.50D-11
 IDIUse=1 WtCom= 1.00D+00 WtEn= 0.00D+00
 Coeff-Com: -0.161D-05 0.168D-05-0.197D-07 0.102D-04 0.743D-04 0.202D-03
 Coeff-Com:  0.109D-03-0.645D-02-0.118D-01 0.513D-01 0.244D+00 0.723D+00
 Coeff:     -0.161D-05 0.168D-05-0.197D-07 0.102D-04 0.743D-04 0.202D-03
 Coeff:      0.109D-03-0.645D-02-0.118D-01 0.513D-01 0.244D+00 0.723D+00
 Gap=     0.151 Goal=   None    Shift=    0.000
 RMSDP=8.53D-09 MaxDP=1.56D-07 DE=-2.27D-11 OVMax= 7.12D-07

 SCF Done:  E(RB3LYP) =  -835.932280033     A.U. after   12 cycles
            NFock= 12  Conv=0.85D-08     -V/T= 2.0016
 KE= 8.346091192768D+02 PE=-2.256963248913D+03 EE= 4.455441898125D+02
 Leave Link  502 at Wed Aug  3 21:11:29 2016, MaxMem=    33554432 cpu:        65.9
 (Enter /home/proyectos/fulerenos/M3C-v2.0/M3C-deps_CCC/g09-AM64L-G09RevC.01/l801.exe)
 DoSCS=F DFT=T ScalE2(SS,OS)=  1.000000  1.000000
 Range of M.O.s used for correlation:     1   163
 NBasis=   163 NAE=    20 NBE=    20 NFC=     0 NFV=     0
 NROrb=    163 NOA=    20 NOB=    20 NVA=   143 NVB=   143

 **** Warning!!: The largest alpha MO coefficient is  0.30282387D+02

 Leave Link  801 at Wed Aug  3 21:11:29 2016, MaxMem=    33554432 cpu:         0.1
 (Enter /home/proyectos/fulerenos/M3C-v2.0/M3C-deps_CCC/g09-AM64L-G09RevC.01/l1101.exe)
 Using compressed storage, NAtomX=     6.
 Will process      7 centers per pass.
 Leave Link 1101 at Wed Aug  3 21:11:29 2016, MaxMem=    33554432 cpu:         0.8
 (Enter /home/proyectos/fulerenos/M3C-v2.0/M3C-deps_CCC/g09-AM64L-G09RevC.01/l1102.exe)
 Symmetrizing basis deriv contribution to polar:
 IMax=3 JMax=2 DiffMx= 0.00D+00
 Leave Link 1102 at Wed Aug  3 21:11:29 2016, MaxMem=    33554432 cpu:         0.1
 (Enter /home/proyectos/fulerenos/M3C-v2.0/M3C-deps_CCC/g09-AM64L-G09RevC.01/l1110.exe)
 Forming Gx(P) for the SCF density, NAtomX=     6.
 Integral derivatives from FoFJK, PRISM(SPDF).
 Do as many integral derivatives as possible in FoFJK.
 G2DrvN: MDV=      33554280.
 G2DrvN: will do     7 centers at a time, making    1 passes.
 Calling FoFCou, ICntrl=  3107 FMM=F I1Cent=   0 AccDes= 0.00D+00.
 FoFJK:  IHMeth= 1 ICntrl=    3107 DoSepK=F KAlg= 0 I1Cent=   0 FoldK=F
 IRaf=         0 NMat=   1 IRICut=       1 DoRegI=T DoRafI=F ISym2E= 0.
 FoFCou: FMM=F IPFlag=           0 FMFlag=      100000 FMFlg1=           0
         NFxFlg=           0 DoJE=F BraDBF=F KetDBF=F FulRan=T
         wScrn=  0.000000 ICntrl=    3107 IOpCl=  0 I1Cent=           0 NGrid=           0
         NMat0=    1 NMatS0=      1 NMatT0=    0 NMatD0=    1 NMtDS0=    0 NMtDT0=    0
 Symmetry not used in FoFCou.
 End of G2Drv F.D. properties file   721 does not exist.
 End of G2Drv F.D. properties file   722 does not exist.
 End of G2Drv F.D. properties file   788 does not exist.
 Leave Link 1110 at Wed Aug  3 21:11:42 2016, MaxMem=    33554432 cpu:        50.2
 (Enter /home/proyectos/fulerenos/M3C-v2.0/M3C-deps_CCC/g09-AM64L-G09RevC.01/l1002.exe)
 Minotr:  Closed shell wavefunction.
          IDoAtm=111111
          Direct CPHF calculation.
          Differentiating once with respect to electric field.
                with respect to dipole field.
          Differentiating once with respect to nuclear coordinates.
          Requested convergence is 1.0D-08 RMS, and 1.0D-07 maximum.
          Secondary convergence is 1.0D-12 RMS, and 1.0D-12 maximum.
          NewPWx=T KeepS1=F KeepF1=F KeepIn=T MapXYZ=F SortEE=F KeepMc=T.
          MDV=      33554205 using IRadAn=       2.
 Generate precomputed XC quadrature information.
          Solving linear equations simultaneously, MaxMat=       0.
 FoFJK:  IHMeth= 1 ICntrl=       0 DoSepK=F KAlg= 0 I1Cent=   0 FoldK=F
 IRaf= 970000000 NMat=  21 IRICut=      52 DoRegI=T DoRafI=T ISym2E= 2.
 FoFCou: FMM=F IPFlag=           0 FMFlag=      100000 FMFlg1=           0
         NFxFlg=           0 DoJE=F BraDBF=F KetDBF=F FulRan=T
         wScrn=  0.000000 ICntrl=       0 IOpCl=  0 I1Cent=           0 NGrid=           0
         NMat0=   21 NMatS0=     21 NMatT0=    0 NMatD0=   21 NMtDS0=    0 NMtDT0=    0
 Integrals replicated using symmetry in FoFCou.
          There are    21 degrees of freedom in the 1st order CPHF.  IDoFFX=6 NUNeed=     3.
     18 vectors produced by pass  0 Test12= 1.36D-14 4.76D-09 XBig12= 2.19D+02 9.00D+00.
 AX will form    18 AO Fock derivatives at one time.
     18 vectors produced by pass  1 Test12= 1.36D-14 4.76D-09 XBig12= 6.42D+01 1.96D+00.
     18 vectors produced by pass  2 Test12= 1.36D-14 4.76D-09 XBig12= 1.10D+00 2.85D-01.
     18 vectors produced by pass  3 Test12= 1.36D-14 4.76D-09 XBig12= 9.73D-03 1.76D-02.
     18 vectors produced by pass  4 Test12= 1.36D-14 4.76D-09 XBig12= 4.41D-05 1.25D-03.
     18 vectors produced by pass  5 Test12= 1.36D-14 4.76D-09 XBig12= 1.12D-07 4.66D-05.
      8 vectors produced by pass  6 Test12= 1.36D-14 4.76D-09 XBig12= 1.67D-10 1.91D-06.
      3 vectors produced by pass  7 Test12= 1.36D-14 4.76D-09 XBig12= 2.11D-13 9.11D-08.
      2 vectors produced by pass  8 Test12= 1.36D-14 4.76D-09 XBig12= 9.78D-16 9.71D-09.
 InvSVY:  IOpt=1 It=  1 EMax= 5.33D-15
 Solved reduced A of dimension   121 with    21 vectors.
 FullF1:  Do perturbations    1 to     3.
 Isotropic polarizability for W=    0.000000       54.77 Bohr**3.
 End of Minotr F.D. properties file   721 does not exist.
 End of Minotr F.D. properties file   722 does not exist.
 End of Minotr F.D. properties file   788 does not exist.
 Leave Link 1002 at Wed Aug  3 21:12:11 2016, MaxMem=    33554432 cpu:       114.9
 (Enter /home/proyectos/fulerenos/M3C-v2.0/M3C-deps_CCC/g09-AM64L-G09RevC.01/l601.exe)
 Copying SCF densities to generalized density rwf, IOpCl= 0 IROHF=0.

 **********************************************************************

            Population analysis using the SCF density.

 **********************************************************************

 Orbital symmetries:
       Occupied  (A) (A) (A) (A) (A) (A) (A) (A) (A) (A) (A) (A)
                 (A) (A) (A) (A) (A) (A) (A) (A)
       Virtual   (A) (A) (A) (A) (A) (A) (A) (A) (A) (A) (A) (A)
                 (A) (A) (A) (A) (A) (A) (A) (A) (A) (A) (A) (A)
                 (A) (A) (A) (A) (A) (A) (A) (A) (A) (A) (A) (A)
                 (A) (A) (A) (A) (A) (A) (A) (A) (A) (A) (A) (A)
                 (A) (A) (A) (A) (A) (A) (A) (A) (A) (A) (A) (A)
                 (A) (A) (A) (A) (A) (A) (A) (A) (A) (A) (A) (A)
                 (A) (A) (A) (A) (A) (A) (A) (A) (A) (A) (A) (A)
                 (A) (A) (A) (A) (A) (A) (A) (A) (A) (A) (A) (A)
                 (A) (A) (A) (A) (A) (A) (A) (A) (A) (A) (A) (A)
                 (A) (A) (A) (A) (A) (A) (A) (A) (A) (A) (A) (A)
                 (A) (A) (A) (A) (A) (A) (A) (A) (A) (A) (A) (A)
                 (A) (A) (A) (A) (A) (A) (A) (A) (A) (A) (A)
 The electronic state is 1-A.
 Alpha  occ. eigenvalues --  -89.20093 -89.11466 -10.48730  -8.28134  -8.19869
 Alpha  occ. eigenvalues --   -6.24308  -6.24108  -6.24027  -6.16361  -6.15840
 Alpha  occ. eigenvalues --   -6.15219  -1.11798  -0.98153  -0.86455  -0.71872
 Alpha  occ. eigenvalues --   -0.70306  -0.64880  -0.58222  -0.51511  -0.49516
 Alpha virt. eigenvalues --   -0.34378  -0.31731  -0.21488  -0.20812  -0.17003
 Alpha virt. eigenvalues --   -0.12946  -0.11475  -0.10765  -0.09156  -0.08665
 Alpha virt. eigenvalues --   -0.08229  -0.07480  -0.06562  -0.05193  -0.04036
 Alpha virt. eigenvalues --   -0.03545  -0.02773  -0.01940  -0.00815   0.00538
 Alpha virt. eigenvalues --    0.01055   0.04073   0.04543   0.05517   0.07608
 Alpha virt. eigenvalues --    0.10643   0.11709   0.12743   0.13546   0.13734
 Alpha virt. eigenvalues --    0.14997   0.15971   0.19650   0.20980   0.21357
 Alpha virt. eigenvalues --    0.22960   0.25109   0.25451   0.27516   0.33014
 Alpha virt. eigenvalues --    0.34836   0.37447   0.39283   0.42086   0.46884
 Alpha virt. eigenvalues --    0.47456   0.48369   0.53867   0.59143   0.60345
 Alpha virt. eigenvalues --    0.61761   0.65006   0.69940   0.71553   0.72435
 Alpha virt. eigenvalues --    0.74922   0.76551   0.76924   0.78027   0.80669
 Alpha virt. eigenvalues --    0.81623   0.83209   0.84585   0.85956   0.87522
 Alpha virt. eigenvalues --    0.97397   1.06770   1.10961   1.18965   1.19587
 Alpha virt. eigenvalues --    1.22902   1.27391   1.34654   1.37852   1.41535
 Alpha virt. eigenvalues --    1.44271   1.44466   1.45745   1.46683   1.48724
 Alpha virt. eigenvalues --    1.55101   1.57254   1.63439   1.64045   1.65442
 Alpha virt. eigenvalues --    1.72226   1.75490   1.80093   1.82962   1.92960
 Alpha virt. eigenvalues --    1.95501   1.98834   2.00469   2.15829   2.35859
 Alpha virt. eigenvalues --    2.44529   2.50477   2.53520   2.54968   2.67036
 Alpha virt. eigenvalues --    2.73591   2.79592   2.80542   2.91483   3.10620
 Alpha virt. eigenvalues --    3.13338   3.37004   3.50962   3.55712   3.58401
 Alpha virt. eigenvalues --    3.67542   3.76249   3.77889   3.79840   3.96294
 Alpha virt. eigenvalues --    4.13701   4.34449   4.39162   4.44201   4.44814
 Alpha virt. eigenvalues --    4.50074   4.61071   4.76338   4.80495   5.12819
 Alpha virt. eigenvalues --    5.19693   5.41605   6.73494   6.81131   6.92256
 Alpha virt. eigenvalues --    7.08995   7.28815   7.75616   8.33334  17.01744
 Alpha virt. eigenvalues --   17.08612  17.17836  17.22408  17.44418  17.72520
 Alpha virt. eigenvalues --   23.68912 188.89761 189.29553
          Condensed to atoms (all electrons):
               1          2          3          4          5          6
     1  S   14.513555   0.311334   0.587689   0.361597   0.001866  -0.007635
     2  S    0.311334  15.245367   0.012646  -0.020067   0.324366  -0.001955
     3  C    0.587689   0.012646   5.148019  -0.033430   0.001966   0.342837
     4  H    0.361597  -0.020067  -0.033430   0.448860  -0.000327   0.004340
     5  H    0.001866   0.324366   0.001966  -0.000327   0.471920  -0.000134
     6  H   -0.007635  -0.001955   0.342837   0.004340  -0.000134   0.402092
 Mulliken charges:
               1
     1  S    0.231594
     2  S    0.128309
     3  C   -0.059727
     4  H    0.239027
     5  H    0.200343
     6  H    0.260454
 Sum of Mulliken charges =   1.00000
 Mulliken charges with hydrogens summed into heavy atoms:
               1
     1  S    0.470621
     2  S    0.328652
     3  C    0.200727
 APT charges:
               1
     1  S    0.453730
     2  S    0.000165
     3  C   -0.016471
     4  H    0.172365
     5  H    0.122664
     6  H    0.267547
 Sum of APT charges =   1.00000
 APT charges with hydrogens summed into heavy atoms:
               1
     1  S    0.626094
     2  S    0.122829
     3  C    0.251077
 Electronic spatial extent (au):  <R**2>=            345.5980
 Charge=              1.0000 electrons
 Dipole moment (field-independent basis, Debye):
    X=              0.6522    Y=              0.0804    Z=              0.7898  Tot=              1.0274
 Quadrupole moment (field-independent basis, Debye-Ang):
   XX=            -21.6154   YY=            -24.9932   ZZ=            -28.0077
   XY=             -1.3338   XZ=             -1.8434   YZ=             -0.6586
 Traceless Quadrupole moment (field-independent basis, Debye-Ang):
   XX=              3.2567   YY=             -0.1211   ZZ=             -3.1356
   XY=             -1.3338   XZ=             -1.8434   YZ=             -0.6586
 Octapole moment (field-independent basis, Debye-Ang**2):
  XXX=            -12.5591  YYY=              4.6305  ZZZ=              2.2299  XYY=              8.5310
  XXY=            -10.6967  XXZ=              2.3428  XZZ=             -4.0841  YZZ=             -0.3302
  YYZ=              0.0570  XYZ=              1.1454
 Hexadecapole moment (field-independent basis, Debye-Ang**3):
 XXXX=           -346.5687 YYYY=            -47.3348 ZZZZ=            -35.5538 XXXY=            -12.5201
 XXXZ=             -5.9115 YYYX=             -2.3730 YYYZ=             -0.5898 ZZZX=             -4.0470
 ZZZY=             -1.4249 XXYY=            -59.9005 XXZZ=            -62.2083 YYZZ=            -17.4589
 XXYZ=             -1.2776 YYXZ=             -0.9506 ZZXY=              0.9769
 N-N= 1.408776597909D+02 E-N=-2.256963251073D+03  KE= 8.346091192768D+02
  Exact polarizability:  87.503  -2.281  41.647  -1.820  -0.103  35.154
 Approx polarizability: 199.709  -8.546  66.928  -2.907  -0.373  60.255
 No NMR shielding tensors so no spin-rotation constants.
 Leave Link  601 at Wed Aug  3 21:12:11 2016, MaxMem=    33554432 cpu:         0.7
 (Enter /home/proyectos/fulerenos/M3C-v2.0/M3C-deps_CCC/g09-AM64L-G09RevC.01/l701.exe)
 Compute integral second derivatives.
 ... and contract with generalized density number  0.
 Leave Link  701 at Wed Aug  3 21:12:11 2016, MaxMem=    33554432 cpu:         1.0
 (Enter /home/proyectos/fulerenos/M3C-v2.0/M3C-deps_CCC/g09-AM64L-G09RevC.01/l702.exe)
 L702 exits ... SP integral derivatives will be done elsewhere.
 Leave Link  702 at Wed Aug  3 21:12:11 2016, MaxMem=    33554432 cpu:         0.1
 (Enter /home/proyectos/fulerenos/M3C-v2.0/M3C-deps_CCC/g09-AM64L-G09RevC.01/l703.exe)
 Compute integral second derivatives, UseDBF=F ICtDFT=           0.
 Integral derivatives from FoFJK, PRISM(SPDF).
 Calling FoFJK, ICntrl=    100127 FMM=F ISym2X=0 I1Cent= 0 IOpClX= 0 NMat=1 NMatS=1 NMatT=0.
 FoFJK:  IHMeth= 1 ICntrl=  100127 DoSepK=F KAlg= 0 I1Cent=   0 FoldK=F
 IRaf=         0 NMat=   1 IRICut=       1 DoRegI=T DoRafI=F ISym2E= 0.
 FoFCou: FMM=F IPFlag=           0 FMFlag=      100000 FMFlg1=         800
         NFxFlg=           0 DoJE=F BraDBF=F KetDBF=F FulRan=T
         wScrn=  0.000000 ICntrl=  100127 IOpCl=  0 I1Cent=           0 NGrid=           0
         NMat0=    1 NMatS0=      1 NMatT0=    0 NMatD0=    1 NMtDS0=    0 NMtDT0=    0
 Symmetry not used in FoFCou.
 Leave Link  703 at Wed Aug  3 21:12:38 2016, MaxMem=    33554432 cpu:       105.5
 (Enter /home/proyectos/fulerenos/M3C-v2.0/M3C-deps_CCC/g09-AM64L-G09RevC.01/l716.exe)
 Dipole        = 2.56576887D-01 3.16227014D-02 3.10743851D-01
 Polarizability= 8.75028491D+01-2.28105700D+00 4.16466498D+01
                -1.81973607D+00-1.02868371D-01 3.51536341D+01
 Full mass-weighted force constant matrix:
 Low frequencies ---   -7.3891   -3.1788   -0.0015   -0.0014    0.0054   17.8792
 Low frequencies ---   97.3006  201.3264  252.9233
 Diagonal vibrational polarizability:
       23.7945617      46.3032854      10.3203428
 Harmonic frequencies (cm**-1), IR intensities (KM/Mole), Raman scattering
 activities (A**4/AMU), depolarization ratios for plane and unpolarized
 incident light, reduced masses (AMU), force constants (mDyne/A),
 and normal coordinates:
                      1                      2                      3
                      A                      A                      A
 Frequencies --     97.0865               201.3233               252.9227
 Red. masses --      1.3605                 1.3717                 3.8295
 Frc consts  --      0.0076                 0.0328                 0.1443
 IR Inten    --     17.4987                14.1302                18.4498
  Atom  AN      X      Y      Z        X      Y      Z        X      Y      Z
     1  16    -0.01   0.02   0.07    -0.00  -0.01  -0.08    -0.03   0.17  -0.02
     2  16     0.02  -0.04  -0.03    -0.00  -0.01   0.02     0.13  -0.07   0.01
     3   6    -0.03  -0.02  -0.10     0.01   0.01   0.11    -0.24  -0.22   0.03
     4   1     0.03   0.01  -0.04     0.03   0.04   0.89     0.13   0.17   0.16
     5   1    -0.26   0.94   0.10    -0.01   0.33   0.07     0.24  -0.39  -0.03
     6   1    -0.08  -0.02  -0.14     0.01   0.02  -0.26    -0.71  -0.24  -0.03
                      4                      5                      6
                      A                      A                      A
 Frequencies --    417.2676               747.8597               809.8053
 Red. masses --     13.0921                 1.5871                 1.0983
 Frc consts  --      1.3430                 0.5230                 0.4244
 IR Inten    --     19.9886               121.6860                38.5110
  Atom  AN      X      Y      Z        X      Y      Z        X      Y      Z
     1  16    -0.35  -0.23  -0.02     0.04   0.00   0.00    -0.02  -0.01   0.02
     2  16     0.41   0.15   0.02    -0.00  -0.01  -0.01    -0.02  -0.00  -0.02
     3   6    -0.14   0.21   0.00    -0.22   0.00   0.01     0.05   0.00   0.05
     4   1    -0.60  -0.22  -0.09     0.22  -0.02  -0.04     0.01  -0.02  -0.20
     5   1     0.18   0.13   0.01     0.30   0.06   0.02     0.85   0.19   0.06
     6   1     0.21   0.23   0.06     0.89   0.09  -0.10    -0.20  -0.01  -0.38
                      7                      8                      9
                      A                      A                      A
 Frequencies --    927.7204               970.1943              1105.3958
 Red. masses --      1.1583                 1.5535                 1.5633
 Frc consts  --      0.5874                 0.8616                 1.1254
 IR Inten    --     24.9108                12.9296                44.7634
  Atom  AN      X      Y      Z        X      Y      Z        X      Y      Z
     1  16     0.02  -0.01   0.01    -0.09   0.03   0.01     0.04  -0.06  -0.00
     2  16    -0.01   0.00  -0.02     0.00  -0.01  -0.00    -0.00  -0.00   0.00
     3   6    -0.03   0.02  -0.09     0.13  -0.06  -0.04    -0.11   0.16   0.00
     4   1    -0.23   0.03   0.37     0.85  -0.08   0.15     0.76  -0.14  -0.04
     5   1     0.44   0.11   0.02     0.12  -0.01   0.00    -0.06  -0.03  -0.00
     6   1    -0.12   0.01   0.76     0.31  -0.07   0.31    -0.58   0.15   0.02
                     10                     11                     12
                      A                      A                      A
 Frequencies --   2622.6620              2628.2490              3131.2445
 Red. masses --      1.0401                 1.0390                 1.0902
 Frc consts  --      4.2152                 4.2286                 6.2979
 IR Inten    --     87.5253                48.1132                45.7546
  Atom  AN      X      Y      Z        X      Y      Z        X      Y      Z
     1  16    -0.00  -0.03   0.00     0.00   0.00   0.00    -0.00   0.00   0.00
     2  16     0.00   0.00  -0.00     0.00   0.00  -0.03    -0.00   0.00   0.00
     3   6     0.00   0.00  -0.00     0.00  -0.00  -0.00     0.01  -0.09  -0.00
     4   1     0.12   0.99  -0.05    -0.01  -0.10   0.00    -0.00   0.01  -0.00
     5   1    -0.00  -0.02   0.10    -0.05  -0.14   0.98     0.00   0.00  -0.00
     6   1     0.00  -0.01   0.00     0.00   0.00   0.00    -0.06   0.99   0.02

 -------------------
 - Thermochemistry -
 -------------------
 Temperature   298.150 Kelvin.  Pressure   1.00000 Atm.
 Atom     1 has atomic number 16 and mass  31.97207
 Atom     2 has atomic number 16 and mass  31.97207
 Atom     3 has atomic number  6 and mass  12.00000
 Atom     4 has atomic number  1 and mass   1.00783
 Atom     5 has atomic number  1 and mass   1.00783
 Atom     6 has atomic number  1 and mass   1.00783
 Molecular mass:    78.96762 amu.
 Principal axes and moments of inertia in atomic units:
                           1         2         3
     Eigenvalues --    44.04945 493.08360 524.30798
           X            0.99984  -0.01094  -0.01446
           Y            0.01029   0.99897  -0.04410
           Z            0.01493   0.04394   0.99892
 This molecule is an asymmetric top.
 Rotational symmetry number  1.
 Rotational temperatures (Kelvin)      1.96629     0.17566     0.16520
 Rotational constants (GHZ):          40.97080     3.66011     3.44214
 Zero-point vibrational energy      83210.6 (Joules/Mol)
                                   19.88782 (Kcal/Mol)
 Warning -- explicit consideration of   4 degrees of freedom as
           vibrations may cause significant error
 Vibrational temperatures:    139.69   289.66   363.90   600.35  1076.00
          (Kelvin)           1165.13  1334.78  1395.89  1590.42  3773.42
                             3781.46  4505.16
 
 Zero-point correction=                           0.031693 (Hartree/Particle)
 Thermal correction to Energy=                    0.036885
 Thermal correction to Enthalpy=                  0.037829
 Thermal correction to Gibbs Free Energy=         0.003643
 Sum of electronic and zero-point Energies=           -835.900587
 Sum of electronic and thermal Energies=              -835.895395
 Sum of electronic and thermal Enthalpies=            -835.894451
 Sum of electronic and thermal Free Energies=         -835.928637
 
                     E (Thermal)             CV                S
                      KCal/Mol        Cal/Mol-Kelvin    Cal/Mol-Kelvin
 Total                   23.146             15.468             71.951
 Electronic               0.000              0.000              0.000
 Translational            0.889              2.981             39.014
 Rotational               0.889              2.981             23.947
 Vibrational             21.368              9.507              8.990
 Vibration     1          0.603              1.951              3.512
 Vibration     2          0.638              1.838              2.121
 Vibration     3          0.664              1.758              1.710
 Vibration     4          0.780              1.433              0.901
                       Q            Log10(Q)             Ln(Q)
 Total Bot       0.211056D-01         -1.675602         -3.858215
 Total V=0       0.798459D+13         12.902253         29.708535
 Vib (Bot)       0.200309D-13        -13.698301        -31.541503
 Vib (Bot)    1  0.211504D+01          0.325318          0.749073
 Vib (Bot)    2  0.989921D+00         -0.004399         -0.010130
 Vib (Bot)    3  0.770592D+00         -0.113176         -0.260596
 Vib (Bot)    4  0.421685D+00         -0.375012         -0.863497
 Vib (V=0)       0.757799D+01          0.879554          2.025248
 Vib (V=0)    1  0.267334D+01          0.427054          0.983327
 Vib (V=0)    2  0.160903D+01          0.206564          0.475631
 Vib (V=0)    3  0.141859D+01          0.151858          0.349665
 Vib (V=0)    4  0.115408D+01          0.062235          0.143302
 Electronic      0.100000D+01          0.000000          0.000000
 Translational   0.275822D+08          7.440629         17.132681
 Rotational      0.382006D+05          4.582070         10.550606
 
                                                              b3lyp opt
                                                             IR Spectrum
 
     3                   22                                                             1                                            
     1                   66                                                             1    9 9    8 7             4     2 2        
     3                   22                                                             0    7 2    1 4             1     5 0    9   
     1                   83                                                             5    0 8    0 8             7     3 1    7   
 
     X                   XX                                                             X    X X    X X             X     X X    X   
     X                   XX                                                             X    X X    X X             X     X X    X   
     X                   XX                                                             X      X    X X             X     X      X   
     X                   XX                                                             X      X    X X                              
     X                   XX                                                             X           X X                              
     X                   XX                                                             X           X X                              
     X                   XX                                                             X             X                              
     X                   XX                                                                           X                              
                          X                                                                           X                              
                          X                                                                           X                              
                          X                                                                           X                              
                          X                                                                           X                              
                          X                                                                           X                              
                          X                                                                           X                              
                                                                                                      X                              
                                                                                                      X                              
                                                                                                      X                              
                                                                                                      X                              
                                                                                                      X                              
                                                                                                      X                              
 
 ***** Axes restored to original set *****
 -------------------------------------------------------------------
 Center     Atomic                   Forces (Hartrees/Bohr)
 Number     Number              X              Y              Z
 -------------------------------------------------------------------
      1       16           0.000004291    0.000016014   -0.000003042
      2       16           0.000005978    0.000002632    0.000029510
      3        6           0.000003232    0.000006432   -0.000014347
      4        1           0.000007449   -0.000021337    0.000002049
      5        1          -0.000000364    0.000003679   -0.000022631
      6        1          -0.000020586   -0.000007419    0.000008462
 -------------------------------------------------------------------
 Cartesian Forces:  Max     0.000029510 RMS     0.000013010
 Z-matrix is all fixed cartesians, so copy forces.
 Force constants in Cartesian coordinates: 
                1             2             3             4             5 
      1  0.298273D+00
      2  0.433801D-01  0.320508D+00
      3  0.649975D-01 -0.207296D+00  0.199148D+00
      4 -0.869674D-01 -0.109531D-01  0.593450D-02  0.111643D+00
      5 -0.275159D-01 -0.238840D-01  0.780704D-02  0.183487D-01  0.872602D-01
      6  0.129996D-02  0.263096D-02 -0.223485D-01 -0.408423D-01  0.107294D+00
      7 -0.731820D-01 -0.573810D-01  0.198564D-01 -0.516740D-02 -0.113613D-01
      8 -0.847143D-01 -0.212849D+00  0.112273D+00 -0.150429D-01 -0.757956D-04
      9  0.351858D-01  0.117903D+00 -0.850821D-01  0.232085D-02  0.314211D-02
     10 -0.123670D+00  0.704617D-01 -0.973805D-01 -0.169659D-02  0.254938D-02
     11  0.627448D-01 -0.630836D-01  0.726700D-01 -0.330032D-02  0.191838D-02
     12 -0.926819D-01  0.775316D-01 -0.931801D-01  0.463365D-02 -0.229238D-02
     13 -0.421799D-02 -0.102413D-01 -0.131325D-01 -0.200490D-01  0.151851D-01
     14 -0.300795D-02 -0.555661D-02 -0.403527D-02  0.757135D-02 -0.657160D-01
     15 -0.647869D-03  0.360297D-02  0.129311D-02  0.258508D-01 -0.112214D+00
     16 -0.102347D-01 -0.352665D-01  0.197245D-01  0.223737D-02  0.279402D-02
     17  0.911316D-02 -0.151345D-01  0.185806D-01  0.337622D-02  0.497277D-03
     18 -0.815358D-02  0.562696D-02  0.169500D-03  0.210255D-02 -0.373675D-02
                6             7             8             9            10 
      6  0.204949D+00
      7  0.324097D-02  0.161692D+00
      8  0.571293D-02 -0.318104D-01  0.375117D+00
      9  0.903613D-02  0.572630D-01 -0.233354D+00  0.226509D+00
     10 -0.332382D-02  0.820354D-02 -0.780605D-02  0.145590D-01  0.118007D+00
     11 -0.546151D-02  0.778931D-02 -0.206852D-01  0.718695D-02 -0.617981D-01
     12  0.926626D-03  0.166269D-02 -0.108970D-03 -0.136564D-01  0.879657D-01
     13  0.389717D-01  0.242268D-03  0.326020D-02  0.200691D-02 -0.891270D-03
     14 -0.105877D+00  0.261777D-04  0.158409D-02  0.110797D-02  0.752117D-03
     15 -0.188260D+00  0.409451D-03 -0.106109D-02  0.516924D-03 -0.102015D-03
     16  0.653467D-03 -0.917881D-01  0.136113D+00 -0.111336D+00  0.480946D-04
     17 -0.429956D-02  0.927372D-01 -0.143091D+00  0.104014D+00 -0.415900D-02
     18 -0.430371D-02 -0.824325D-01  0.116538D+00 -0.137323D+00 -0.171841D-02
               11            12            13            14            15 
     11  0.804748D-01
     12 -0.794258D-01  0.993779D-01
     13 -0.161857D-02 -0.637545D-03  0.244271D-01
     14  0.726099D-04 -0.374226D-03 -0.536521D-02  0.703954D-01
     15 -0.279014D-03 -0.180725D-03 -0.254630D-01  0.110029D+00  0.186270D+00
     16 -0.381712D-02 -0.942634D-03  0.488875D-03  0.235172D-04 -0.473065D-04
     17  0.130294D-02  0.466979D-02 -0.122022D-02 -0.779508D-03 -0.780626D-04
     18  0.530945D-02  0.671273D-02 -0.174553D-02 -0.850879D-03  0.360426D-03
               16            17            18 
     16  0.992485D-01
     17 -0.998474D-01  0.157205D+00
     18  0.919475D-01 -0.122887D+00  0.134385D+00
 Leave Link  716 at Wed Aug  3 21:12:38 2016, MaxMem=    33554432 cpu:         0.1
 (Enter /home/proyectos/fulerenos/M3C-v2.0/M3C-deps_CCC/g09-AM64L-G09RevC.01/l103.exe)

 GradGradGradGradGradGradGradGradGradGradGradGradGradGradGradGradGradGrad
 Berny optimization.
 Search for a local minimum.
 Step number   1 out of a maximum of    2
 All quantities printed in internal units (Hartrees-Bohrs-Radians)
 Second derivative matrix not updated -- analytic derivatives used.
 The second derivative matrix:
                          X1        Y1        Z1        X2        Y2
           X1           0.29827
           Y1           0.04338   0.32051
           Z1           0.06500  -0.20730   0.19915
           X2          -0.08697  -0.01095   0.00593   0.11164
           Y2          -0.02752  -0.02388   0.00781   0.01835   0.08726
           Z2           0.00130   0.00263  -0.02235  -0.04084   0.10729
           X3          -0.07318  -0.05738   0.01986  -0.00517  -0.01136
           Y3          -0.08471  -0.21285   0.11227  -0.01504  -0.00008
           Z3           0.03519   0.11790  -0.08508   0.00232   0.00314
           X4          -0.12367   0.07046  -0.09738  -0.00170   0.00255
           Y4           0.06274  -0.06308   0.07267  -0.00330   0.00192
           Z4          -0.09268   0.07753  -0.09318   0.00463  -0.00229
           X5          -0.00422  -0.01024  -0.01313  -0.02005   0.01519
           Y5          -0.00301  -0.00556  -0.00404   0.00757  -0.06572
           Z5          -0.00065   0.00360   0.00129   0.02585  -0.11221
           X6          -0.01023  -0.03527   0.01972   0.00224   0.00279
           Y6           0.00911  -0.01513   0.01858   0.00338   0.00050
           Z6          -0.00815   0.00563   0.00017   0.00210  -0.00374
                          Z2        X3        Y3        Z3        X4
           Z2           0.20495
           X3           0.00324   0.16169
           Y3           0.00571  -0.03181   0.37512
           Z3           0.00904   0.05726  -0.23335   0.22651
           X4          -0.00332   0.00820  -0.00781   0.01456   0.11801
           Y4          -0.00546   0.00779  -0.02069   0.00719  -0.06180
           Z4           0.00093   0.00166  -0.00011  -0.01366   0.08797
           X5           0.03897   0.00024   0.00326   0.00201  -0.00089
           Y5          -0.10588   0.00003   0.00158   0.00111   0.00075
           Z5          -0.18826   0.00041  -0.00106   0.00052  -0.00010
           X6           0.00065  -0.09179   0.13611  -0.11134   0.00005
           Y6          -0.00430   0.09274  -0.14309   0.10401  -0.00416
           Z6          -0.00430  -0.08243   0.11654  -0.13732  -0.00172
                          Y4        Z4        X5        Y5        Z5
           Y4           0.08047
           Z4          -0.07943   0.09938
           X5          -0.00162  -0.00064   0.02443
           Y5           0.00007  -0.00037  -0.00537   0.07040
           Z5          -0.00028  -0.00018  -0.02546   0.11003   0.18627
           X6          -0.00382  -0.00094   0.00049   0.00002  -0.00005
           Y6           0.00130   0.00467  -0.00122  -0.00078  -0.00008
           Z6           0.00531   0.00671  -0.00175  -0.00085   0.00036
                          X6        Y6        Z6
           X6           0.09925
           Y6          -0.09985   0.15720
           Z6           0.09195  -0.12289   0.13438
 ITU=  0
     Eigenvalues ---    0.00065   0.00652   0.01189   0.03511   0.04413
     Eigenvalues ---    0.07530   0.09235   0.16456   0.38829   0.42602
     Eigenvalues ---    0.48458   0.91206
 Angle between quadratic step and forces=  73.17 degrees.
 Linear search not attempted -- first point.
 B after Tr=     0.000491   -0.000819    0.001277
         Rot=    1.000000    0.000008   -0.000142   -0.000285 Ang=   0.04 deg.
 Variable       Old X    -DE/DX   Delta X   Delta X   Delta X     New X
                                 (Linear)    (Quad)   (Total)
    X1       -0.31783   0.00000   0.00000  -0.00022   0.00054  -0.31729
    Y1        0.33819   0.00002   0.00000   0.00122   0.00025   0.33844
    Z1        1.63485  -0.00000   0.00000   0.00282   0.00418   1.63903
    X2       -3.97038   0.00001   0.00000   0.00145   0.00320  -3.96718
    Y2       -1.22353   0.00000   0.00000  -0.00326  -0.00631  -1.22984
    Z2        1.97390   0.00003   0.00000   0.00124   0.00366   1.97757
    X3        1.12508   0.00000   0.00000  -0.00020  -0.00111   1.12397
    Y3        2.70837   0.00001   0.00000  -0.00127  -0.00145   2.70692
    Z3        0.47093  -0.00001   0.00000  -0.00205  -0.00114   0.46980
    X4        1.27690   0.00001   0.00000  -0.00008   0.00184   1.27874
    Y4       -0.91739  -0.00002   0.00000   0.00178   0.00174  -0.91565
    Z4        3.17476   0.00000   0.00000   0.00318   0.00411   3.17886
    X5       -3.71715  -0.00000   0.00000  -0.00365  -0.00178  -3.71892
    Y5       -2.53933   0.00000   0.00000   0.01368   0.01073  -2.52859
    Z5       -0.20062  -0.00002   0.00000  -0.00965  -0.00727  -0.20789
    X6        0.06833  -0.00002   0.00000  -0.00069  -0.00269   0.06564
    Y6        4.00560  -0.00001   0.00000  -0.00418  -0.00497   4.00063
    Z6       -0.73912   0.00001   0.00000  -0.00474  -0.00355  -0.74267
         Item               Value     Threshold  Converged?
 Maximum Force            0.000030     0.000450     YES
 RMS     Force            0.000013     0.000300     YES
 Maximum Displacement     0.010735     0.001800     NO 
 RMS     Displacement     0.004249     0.001200     NO 
 Predicted change in Energy=-2.038622D-07
 GradGradGradGradGradGradGradGradGradGradGradGradGradGradGradGradGradGrad

 Leave Link  103 at Wed Aug  3 21:12:38 2016, MaxMem=    33554432 cpu:         0.1
 (Enter /home/proyectos/fulerenos/M3C-v2.0/M3C-deps_CCC/g09-AM64L-G09RevC.01/l9999.exe)
 1\1\GINC-DEPAZ28\Freq\RB3LYP\6-311++G(3df,2p)\C1H3S2(1+)\NAGUIRRE\03-A
 ug-2016\0\\#p b3lyp/6-311++G(3df,2p) freq\\b3lyp opt\\1,1\S,-0.168187,
 0.178963,0.865125\S,-2.101033,-0.647466,1.044545\C,0.595368,1.433207,0
 .249208\H,0.675709,-0.485462,1.680008\H,-1.967029,-1.343753,-0.106166\
 H,0.03616,2.119674,-0.391125\\Version=EM64L-G09RevE.01\State=1-A\HF=-8
 35.93228\RMSD=8.528e-09\RMSF=1.301e-05\ZeroPoint=0.0316933\Thermal=0.0
 368849\Dipole=0.2971485,-0.0524133,-0.2689778\DipoleDeriv=0.9248352,0.
 2442454,0.0416041,0.320401,0.2585202,0.0209044,0.0270562,0.0192591,0.1
 778334,-0.1684335,-0.2765529,-0.078197,-0.3031525,-0.067851,0.0701771,
 -0.096484,0.0596037,0.2367807,-0.169014,0.0334874,-0.0655464,-0.036076
 1,0.101246,-0.0535184,-0.0872215,-0.0771573,0.018356,0.1063531,-0.1199
 862,0.0697856,-0.1381002,0.1759009,-0.0316383,0.0881882,-0.0129138,0.2
 348403,0.0448084,0.0001332,0.0906822,0.002584,0.1944824,0.055035,0.111
 3856,0.0668931,0.1287,0.2614508,0.1186731,-0.0583286,0.1543438,0.33770
 15,-0.0609598,-0.0429245,-0.0556848,0.2034897\Polar=68.6197447,22.7998
 021,56.660776,-4.7298854,-7.6726059,39.0226123\PG=C01 [X(C1H3S2)]\NIma
 g=0\\0.29827251,0.04338014,0.32050777,0.06499753,-0.20729555,0.1991480
 8,-0.08696743,-0.01095314,0.00593450,0.11164304,-0.02751586,-0.0238840
 1,0.00780704,0.01834875,0.08726016,0.00129996,0.00263096,-0.02234847,-
 0.04084231,0.10729378,0.20494942,-0.07318202,-0.05738096,0.01985642,-0
 .00516740,-0.01136133,0.00324097,0.16169167,-0.08471432,-0.21284905,0.
 11227317,-0.01504286,-0.00007580,0.00571293,-0.03181040,0.37511691,0.0
 3518584,0.11790305,-0.08508209,0.00232085,0.00314211,0.00903613,0.0572
 6298,-0.23335441,0.22650887,-0.12367033,0.07046169,-0.09738045,-0.0016
 9659,0.00254938,-0.00332382,0.00820354,-0.00780605,0.01455898,0.118006
 55,0.06274483,-0.06308356,0.07266996,-0.00330032,0.00191838,-0.0054615
 1,0.00778931,-0.02068517,0.00718695,-0.06179814,0.08047481,-0.09268188
 ,0.07753161,-0.09318013,0.00463365,-0.00229238,0.00092663,0.00166269,-
 0.00010897,-0.01365636,0.08796572,-0.07942583,0.09937786,-0.00421799,-
 0.01024126,-0.01313253,-0.02004898,0.01518505,0.03897173,0.00024227,0.
 00326020,0.00200691,-0.00089127,-0.00161857,-0.00063754,0.02442711,-0.
 00300795,-0.00555661,-0.00403527,0.00757135,-0.06571601,-0.10587658,0.
 00002618,0.00158409,0.00110797,0.00075212,0.00007261,-0.00037423,-0.00
 536521,0.07039542,-0.00064787,0.00360297,0.00129311,0.02585077,-0.1122
 1379,-0.18826000,0.00040945,-0.00106109,0.00051692,-0.00010201,-0.0002
 7901,-0.00018072,-0.02546303,0.11002899,0.18627026,-0.01023474,-0.0352
 6648,0.01972454,0.00223737,0.00279402,0.00065347,-0.09178807,0.1361134
 3,-0.11133556,0.00004809,-0.00381712,-0.00094263,0.00048888,0.00002352
 ,-0.00004731,0.09924847,0.00911316,-0.01513454,0.01858065,0.00337622,0
 .00049728,-0.00429956,0.09273720,-0.14309099,0.10401434,-0.00415900,0.
 00130294,0.00466979,-0.00122022,-0.00077951,-0.00007806,-0.09984737,0.
 15720482,-0.00815358,0.00562696,0.00016950,0.00210255,-0.00373675,-0.0
 0430371,-0.08243251,0.11653838,-0.13732347,-0.00171841,0.00530945,0.00
 671273,-0.00174553,-0.00085088,0.00036043,0.09194749,-0.12288715,0.134
 38453\\-0.00000429,-0.00001601,0.00000304,-0.00000598,-0.00000263,-0.0
 0002951,-0.00000323,-0.00000643,0.00001435,-0.00000745,0.00002134,-0.0
 0000205,0.00000036,-0.00000368,0.00002263,0.00002059,0.00000742,-0.000
 00846\\\@


 WHEN YOU REACH FOR THE STARS, YOU MAY NOT QUITE GET ONE,
 BUT YOU WON'T COME UP WITH A HANDFUL OF MUD, EITHER.

                                         -- LEO BURNETT (AD AGENCY HEAD)
 Job cpu time:       0 days  0 hours  5 minutes 44.4 seconds.
 File lengths (MBytes):  RWF=     22 Int=      0 D2E=      0 Chk=      3 Scr=      1
 Normal termination of Gaussian 09 at Wed Aug  3 21:12:38 2016.
