 Entering Gaussian System, Link 0=/home/proyectos/fulerenos/M3C-v2.0/M3C-deps_CCC/g09-AM64L-G09RevC.01/g09
 Initial command:
 /home/proyectos/fulerenos/M3C-v2.0/M3C-deps_CCC/g09-AM64L-G09RevC.01/l1.exe "/scratch/naguirre/gaussian/Gau-30179.inp" -scrdir="/scratch/naguirre/gaussian/"
 Entering Link 1 = /home/proyectos/fulerenos/M3C-v2.0/M3C-deps_CCC/g09-AM64L-G09RevC.01/l1.exe PID=     30187.
  
 Copyright (c) 1988,1990,1992,1993,1995,1998,2003,2009,2015,
            Gaussian, Inc.  All Rights Reserved.
  
 This is part of the Gaussian(R) 09 program.  It is based on
 the Gaussian(R) 03 system (copyright 2003, Gaussian, Inc.),
 the Gaussian(R) 98 system (copyright 1998, Gaussian, Inc.),
 the Gaussian(R) 94 system (copyright 1995, Gaussian, Inc.),
 the Gaussian 92(TM) system (copyright 1992, Gaussian, Inc.),
 the Gaussian 90(TM) system (copyright 1990, Gaussian, Inc.),
 the Gaussian 88(TM) system (copyright 1988, Gaussian, Inc.),
 the Gaussian 86(TM) system (copyright 1986, Carnegie Mellon
 University), and the Gaussian 82(TM) system (copyright 1983,
 Carnegie Mellon University). Gaussian is a federally registered
 trademark of Gaussian, Inc.
  
 This software contains proprietary and confidential information,
 including trade secrets, belonging to Gaussian, Inc.
  
 This software is provided under written license and may be
 used, copied, transmitted, or stored only in accord with that
 written license.
  
 The following legend is applicable only to US Government
 contracts under FAR:
  
                    RESTRICTED RIGHTS LEGEND
  
 Use, reproduction and disclosure by the US Government is
 subject to restrictions as set forth in subparagraphs (a)
 and (c) of the Commercial Computer Software - Restricted
 Rights clause in FAR 52.227-19.
  
 Gaussian, Inc.
 340 Quinnipiac St., Bldg. 40, Wallingford CT 06492
  
  
 ---------------------------------------------------------------
 Warning -- This program may not be used in any manner that
 competes with the business of Gaussian, Inc. or will provide
 assistance to any competitor of Gaussian, Inc.  The licensee
 of this program is prohibited from giving any competitor of
 Gaussian, Inc. access to this program.  By using this program,
 the user acknowledges that Gaussian, Inc. is engaged in the
 business of creating and licensing software in the field of
 computational chemistry and represents and warrants to the
 licensee that it is not a competitor of Gaussian, Inc. and that
 it will not use this program in any manner prohibited above.
 ---------------------------------------------------------------
  

 Cite this work as:
 Gaussian 09, Revision E.01,
 M. J. Frisch, G. W. Trucks, H. B. Schlegel, G. E. Scuseria, 
 M. A. Robb, J. R. Cheeseman, G. Scalmani, V. Barone, B. Mennucci, 
 G. A. Petersson, H. Nakatsuji, M. Caricato, X. Li, H. P. Hratchian, 
 A. F. Izmaylov, J. Bloino, G. Zheng, J. L. Sonnenberg, M. Hada, 
 M. Ehara, K. Toyota, R. Fukuda, J. Hasegawa, M. Ishida, T. Nakajima, 
 Y. Honda, O. Kitao, H. Nakai, T. Vreven, J. A. Montgomery, Jr., 
 J. E. Peralta, F. Ogliaro, M. Bearpark, J. J. Heyd, E. Brothers, 
 K. N. Kudin, V. N. Staroverov, T. Keith, R. Kobayashi, J. Normand, 
 K. Raghavachari, A. Rendell, J. C. Burant, S. S. Iyengar, J. Tomasi, 
 M. Cossi, N. Rega, J. M. Millam, M. Klene, J. E. Knox, J. B. Cross, 
 V. Bakken, C. Adamo, J. Jaramillo, R. Gomperts, R. E. Stratmann, 
 O. Yazyev, A. J. Austin, R. Cammi, C. Pomelli, J. W. Ochterski, 
 R. L. Martin, K. Morokuma, V. G. Zakrzewski, G. A. Voth, 
 P. Salvador, J. J. Dannenberg, S. Dapprich, A. D. Daniels, 
 O. Farkas, J. B. Foresman, J. V. Ortiz, J. Cioslowski, 
 and D. J. Fox, Gaussian, Inc., Wallingford CT, 2013.
 
 ******************************************
 Gaussian 09:  EM64L-G09RevE.01 30-Nov-2015
                 3-Aug-2016 
 ******************************************
 %NProcShared=4
 Will use up to    4 processors via shared memory.
 ------------------------------
 #p b3lyp/6-311++G(3df,2p) freq
 ------------------------------
 1/10=4,30=1,38=1/1,3;
 2/12=2,17=6,18=5,40=1/2;
 3/5=4,6=6,7=1216,11=2,16=1,25=1,30=1,71=2,74=-5,140=1/1,2,3;
 4//1;
 5/5=2,38=5,98=1/2;
 8/6=4,10=90,11=11/1;
 11/6=1,8=1,9=11,15=111,16=1/1,2,10;
 10/6=1/2;
 6/7=2,8=2,9=2,10=2,18=1,28=1/1;
 7/8=1,10=1,25=1/1,2,3,16;
 1/10=4,30=1/3;
 99//99;
 Leave Link    1 at Wed Aug  3 22:50:18 2016, MaxMem=           0 cpu:         0.3
 (Enter /home/proyectos/fulerenos/M3C-v2.0/M3C-deps_CCC/g09-AM64L-G09RevC.01/l101.exe)
 ---------
 b3lyp opt
 ---------
 Symbolic Z-matrix:
 Charge =  2 Multiplicity = 1
 S                     0.15887   0.2276    1.24838 
 C                    -0.22815  -0.0904   -0.30227 
 C                     0.36777  -0.81077  -1.36246 
 H                     0.09714  -1.86521  -1.55178 
 H                     1.01183  -0.30024  -2.10101 
 H                    -0.9468    0.97713   1.54269 
 H                    -1.18392   0.31469  -0.73977 
 
 NAtoms=      7 NQM=        7 NQMF=       0 NMMI=      0 NMMIF=      0
                NMic=       0 NMicF=      0.
                    Isotopes and Nuclear Properties:
 (Nuclear quadrupole moments (NQMom) in fm**2, nuclear magnetic moments (NMagM)
  in nuclear magnetons)

  Atom         1           2           3           4           5           6           7
 IAtWgt=          32          12          12           1           1           1           1
 AtmWgt=  31.9720718  12.0000000  12.0000000   1.0078250   1.0078250   1.0078250   1.0078250
 NucSpn=           0           0           0           1           1           1           1
 AtZEff=   0.0000000   0.0000000   0.0000000   0.0000000   0.0000000   0.0000000   0.0000000
 NQMom=    0.0000000   0.0000000   0.0000000   0.0000000   0.0000000   0.0000000   0.0000000
 NMagM=    0.0000000   0.0000000   0.0000000   2.7928460   2.7928460   2.7928460   2.7928460
 AtZNuc=  16.0000000   6.0000000   6.0000000   1.0000000   1.0000000   1.0000000   1.0000000
 Leave Link  101 at Wed Aug  3 22:50:18 2016, MaxMem=    33554432 cpu:         0.2
 (Enter /home/proyectos/fulerenos/M3C-v2.0/M3C-deps_CCC/g09-AM64L-G09RevC.01/l103.exe)

 GradGradGradGradGradGradGradGradGradGradGradGradGradGradGradGradGradGrad
 Berny optimization.
 Initialization pass.
 Trust Radius=3.00D-01 FncErr=1.00D-07 GrdErr=1.00D-07
 Number of steps in this run=      2 maximum allowed number of steps=      2.
 GradGradGradGradGradGradGradGradGradGradGradGradGradGradGradGradGradGrad

 Leave Link  103 at Wed Aug  3 22:50:18 2016, MaxMem=    33554432 cpu:         0.1
 (Enter /home/proyectos/fulerenos/M3C-v2.0/M3C-deps_CCC/g09-AM64L-G09RevC.01/l202.exe)
                          Input orientation:                          
 ---------------------------------------------------------------------
 Center     Atomic      Atomic             Coordinates (Angstroms)
 Number     Number       Type             X           Y           Z
 ---------------------------------------------------------------------
      1         16           0        0.158875    0.227600    1.248376
      2          6           0       -0.228152   -0.090395   -0.302269
      3          6           0        0.367768   -0.810772   -1.362457
      4          1           0        0.097145   -1.865206   -1.551780
      5          1           0        1.011828   -0.300242   -2.101009
      6          1           0       -0.946802    0.977132    1.542692
      7          1           0       -1.183923    0.314687   -0.739771
 ---------------------------------------------------------------------
                    Distance matrix (angstroms):
                    1          2          3          4          5
     1  S    0.000000
     2  C    1.629543   0.000000
     3  C    2.817499   1.413528   0.000000
     4  H    3.496358   2.194778   1.104949   0.000000
     5  H    3.496358   2.194778   1.104949   1.894046   0.000000
     6  H    1.367823   2.249434   3.655761   4.329488   4.329488
     7  H    2.400712   1.126497   2.015475   2.655640   2.655640
                    6          7
     6  H    0.000000
     7  H    2.388451   0.000000
 Stoichiometry    C2H4S(2+)
 Framework group  CS[SG(C2H2S),X(H2)]
 Deg. of freedom    10
 Full point group                 CS      NOp   2
 Largest Abelian subgroup         CS      NOp   2
 Largest concise Abelian subgroup CS      NOp   2
                         Standard orientation:                         
 ---------------------------------------------------------------------
 Center     Atomic      Atomic             Coordinates (Angstroms)
 Number     Number       Type             X           Y           Z
 ---------------------------------------------------------------------
      1         16           0        0.528874   -0.935469   -0.000000
      2          6           0       -0.000000    0.605863    0.000000
      3          6           0       -1.264530    1.237548    0.000000
      4          1           0       -1.740181    1.550302    0.947023
      5          1           0       -1.740181    1.550302   -0.947023
      6          1           0        1.866490   -0.649593    0.000000
      7          1           0        0.739069    1.456024    0.000000
 ---------------------------------------------------------------------
 Rotational constants (GHZ):     58.7029353      5.5406970      5.2531044
 Leave Link  202 at Wed Aug  3 22:50:18 2016, MaxMem=    33554432 cpu:         0.0
 (Enter /home/proyectos/fulerenos/M3C-v2.0/M3C-deps_CCC/g09-AM64L-G09RevC.01/l301.exe)
 Standard basis: 6-311++G(3df,2p) (5D, 7F)
 Ernie: Thresh=  0.10000D-02 Tol=  0.10000D-05 Strict=F.
 There are   125 symmetry adapted cartesian basis functions of A'  symmetry.
 There are    58 symmetry adapted cartesian basis functions of A"  symmetry.
 There are   110 symmetry adapted basis functions of A'  symmetry.
 There are    55 symmetry adapted basis functions of A"  symmetry.
   165 basis functions,   236 primitive gaussians,   183 cartesian basis functions
    15 alpha electrons       15 beta electrons
       nuclear repulsion energy        93.7008364444 Hartrees.
 IExCor=  402 DFT=T Ex+Corr=B3LYP ExCW=0 ScaHFX=  0.200000
 ScaDFX=  0.800000  0.720000  1.000000  0.810000 ScalE2=  1.000000  1.000000
 IRadAn=      0 IRanWt=     -1 IRanGd=            0 ICorTp=0 IEmpDi=  4
 NAtoms=    7 NActive=    7 NUniq=    6 SFac= 1.36D+00 NAtFMM=   60 NAOKFM=F Big=F
 Integral buffers will be    131072 words long.
 Raffenetti 2 integral format.
 Two-electron integral symmetry is turned on.
 Leave Link  301 at Wed Aug  3 22:50:18 2016, MaxMem=    33554432 cpu:         0.2
 (Enter /home/proyectos/fulerenos/M3C-v2.0/M3C-deps_CCC/g09-AM64L-G09RevC.01/l302.exe)
 NPDir=0 NMtPBC=     1 NCelOv=     1 NCel=       1 NClECP=     1 NCelD=      1
         NCelK=      1 NCelE2=     1 NClLst=     1 CellRange=     0.0.
 One-electron integrals computed using PRISM.
 One-electron integral symmetry used in STVInt
 NBasis=   165 RedAO= T EigKep=  7.17D-05  NBF=   110    55
 NBsUse=   165 1.00D-06 EigRej= -1.00D+00 NBFU=   110    55
 Precomputing XC quadrature grid using
 IXCGrd= 4 IRadAn=           0 IRanWt=          -1 IRanGd=           0 AccXCQ= 0.00D+00.
 Generated NRdTot=       0 NPtTot=           0 NUsed=           0 NTot=          32
 NSgBfM=   183   183   183   183   183 MxSgAt=     7 MxSgA2=     7.
 Leave Link  302 at Wed Aug  3 22:50:19 2016, MaxMem=    33554432 cpu:         0.9
 (Enter /home/proyectos/fulerenos/M3C-v2.0/M3C-deps_CCC/g09-AM64L-G09RevC.01/l303.exe)
 DipDrv:  MaxL=1.
 Leave Link  303 at Wed Aug  3 22:50:19 2016, MaxMem=    33554432 cpu:         0.1
 (Enter /home/proyectos/fulerenos/M3C-v2.0/M3C-deps_CCC/g09-AM64L-G09RevC.01/l401.exe)
 ExpMin= 3.60D-02 ExpMax= 9.34D+04 ExpMxC= 3.17D+03 IAcc=3 IRadAn=         5 AccDes= 0.00D+00
 Harris functional with IExCor=  402 and IRadAn=       5 diagonalized for initial guess.
 HarFok:  IExCor=  402 AccDes= 0.00D+00 IRadAn=         5 IDoV= 1 UseB2=F ITyADJ=14
 ICtDFT=  3500011 ScaDFX=  1.000000  1.000000  1.000000  1.000000
 FoFCou: FMM=F IPFlag=           0 FMFlag=      100000 FMFlg1=           0
         NFxFlg=           0 DoJE=T BraDBF=F KetDBF=T FulRan=T
         wScrn=  0.000000 ICntrl=     500 IOpCl=  0 I1Cent=   200000004 NGrid=           0
         NMat0=    1 NMatS0=      1 NMatT0=    0 NMatD0=    1 NMtDS0=    0 NMtDT0=    0
 Petite list used in FoFCou.
 Harris En= -476.256791597410    
 JPrj=0 DoOrth=F DoCkMO=F.
 Initial guess orbital symmetries:
       Occupied  (A') (A') (A') (A') (A') (A') (A") (A') (A') (A')
                 (A') (A") (A') (A') (A")
       Virtual   (A') (A") (A') (A') (A') (A') (A") (A') (A') (A")
                 (A') (A") (A') (A') (A') (A') (A') (A") (A') (A")
                 (A') (A') (A') (A') (A") (A") (A') (A') (A") (A')
                 (A') (A") (A') (A") (A') (A') (A') (A") (A') (A')
                 (A') (A") (A') (A') (A') (A") (A') (A") (A') (A")
                 (A') (A") (A') (A') (A') (A") (A') (A") (A") (A')
                 (A') (A') (A") (A') (A') (A") (A') (A") (A') (A')
                 (A') (A') (A") (A') (A") (A") (A') (A') (A") (A")
                 (A') (A") (A') (A') (A") (A') (A') (A') (A") (A')
                 (A') (A') (A") (A') (A') (A") (A') (A') (A") (A')
                 (A") (A') (A') (A") (A") (A') (A') (A") (A') (A")
                 (A') (A') (A") (A') (A') (A") (A') (A') (A') (A")
                 (A") (A') (A') (A') (A") (A") (A') (A") (A') (A')
                 (A") (A') (A') (A") (A") (A') (A') (A") (A') (A')
                 (A') (A") (A') (A') (A") (A') (A') (A') (A') (A')
 The electronic state of the initial guess is 1-A'.
 Leave Link  401 at Wed Aug  3 22:50:20 2016, MaxMem=    33554432 cpu:         3.4
 (Enter /home/proyectos/fulerenos/M3C-v2.0/M3C-deps_CCC/g09-AM64L-G09RevC.01/l502.exe)
 Closed shell SCF:
 Using DIIS extrapolation, IDIIS=  1040.
 Integral symmetry usage will be decided dynamically.
 IVT=      121677 IEndB=      121677 NGot=    33554432 MDV=    33483068
 LenX=    33483068 LenY=    33449138
 Requested convergence on RMS density matrix=1.00D-08 within 128 cycles.
 Requested convergence on MAX density matrix=1.00D-06.
 Requested convergence on             energy=1.00D-06.
 No special actions if energy rises.
 Fock matrices will be formed incrementally for  20 cycles.

 Cycle   1  Pass 1  IDiag  1:
 FoFJK:  IHMeth= 1 ICntrl=       0 DoSepK=F KAlg= 0 I1Cent=   0 FoldK=F
 IRaf= 980000000 NMat=   1 IRICut=       1 DoRegI=T DoRafI=F ISym2E= 1.
 FoFCou: FMM=F IPFlag=           0 FMFlag=      100000 FMFlg1=           0
         NFxFlg=           0 DoJE=F BraDBF=F KetDBF=F FulRan=T
         wScrn=  0.000000 ICntrl=       0 IOpCl=  0 I1Cent=           0 NGrid=           0
         NMat0=    1 NMatS0=      1 NMatT0=    0 NMatD0=    1 NMtDS0=    0 NMtDT0=    0
 Petite list used in FoFCou.
 E= -475.874464927223    
 DIIS: error= 1.24D-02 at cycle   1 NSaved=   1.
 NSaved= 1 IEnMin= 1 EnMin= -475.874464927223     IErMin= 1 ErrMin= 1.24D-02
 ErrMax= 1.24D-02  0.00D+00 EMaxC= 1.00D-01 BMatC= 6.88D-02 BMatP= 6.88D-02
 IDIUse=3 WtCom= 8.76D-01 WtEn= 1.24D-01
 Coeff-Com:  0.100D+01
 Coeff-En:   0.100D+01
 Coeff:      0.100D+01
 Gap=     0.204 Goal=   None    Shift=    0.000
 GapD=    0.204 DampG=1.000 DampE=0.500 DampFc=0.5000 IDamp=-1.
 Damping current iteration by 5.00D-01
 RMSDP=2.98D-03 MaxDP=1.60D-01              OVMax= 3.08D-01

 Cycle   2  Pass 1  IDiag  1:
 RMSU=  1.47D-03    CP:  1.01D+00
 E= -475.890054908790     Delta-E=       -0.015589981568 Rises=F Damp=T
 DIIS: error= 8.26D-03 at cycle   2 NSaved=   2.
 NSaved= 2 IEnMin= 2 EnMin= -475.890054908790     IErMin= 2 ErrMin= 8.26D-03
 ErrMax= 8.26D-03  0.00D+00 EMaxC= 1.00D-01 BMatC= 1.11D-02 BMatP= 6.88D-02
 IDIUse=3 WtCom= 9.17D-01 WtEn= 8.26D-02
 Coeff-Com:  0.161D+00 0.839D+00
 Coeff-En:   0.341D+00 0.659D+00
 Coeff:      0.176D+00 0.824D+00
 Gap=     0.147 Goal=   None    Shift=    0.000
 RMSDP=1.69D-03 MaxDP=6.61D-02 DE=-1.56D-02 OVMax= 2.52D-01

 Cycle   3  Pass 1  IDiag  1:
 RMSU=  1.60D-03    CP:  1.05D+00  8.69D-01
 E= -475.920967618863     Delta-E=       -0.030912710073 Rises=F Damp=F
 DIIS: error= 1.01D-02 at cycle   3 NSaved=   3.
 NSaved= 3 IEnMin= 3 EnMin= -475.920967618863     IErMin= 2 ErrMin= 8.26D-03
 ErrMax= 1.01D-02  0.00D+00 EMaxC= 1.00D-01 BMatC= 8.46D-03 BMatP= 1.11D-02
 IDIUse=3 WtCom= 8.99D-01 WtEn= 1.01D-01
 Coeff-Com: -0.630D-01 0.462D+00 0.601D+00
 Coeff-En:   0.000D+00 0.000D+00 0.100D+01
 Coeff:     -0.566D-01 0.415D+00 0.642D+00
 Gap=     0.166 Goal=   None    Shift=    0.000
 RMSDP=7.99D-04 MaxDP=3.19D-02 DE=-3.09D-02 OVMax= 7.70D-02

 Cycle   4  Pass 1  IDiag  1:
 RMSU=  3.82D-04    CP:  1.03D+00  1.03D+00  6.11D-01
 E= -475.928713518728     Delta-E=       -0.007745899865 Rises=F Damp=F
 DIIS: error= 4.99D-03 at cycle   4 NSaved=   4.
 NSaved= 4 IEnMin= 4 EnMin= -475.928713518728     IErMin= 4 ErrMin= 4.99D-03
 ErrMax= 4.99D-03  0.00D+00 EMaxC= 1.00D-01 BMatC= 1.95D-03 BMatP= 8.46D-03
 IDIUse=3 WtCom= 9.50D-01 WtEn= 4.99D-02
 Coeff-Com: -0.216D-01 0.487D-01 0.356D+00 0.617D+00
 Coeff-En:   0.000D+00 0.000D+00 0.225D+00 0.775D+00
 Coeff:     -0.205D-01 0.462D-01 0.350D+00 0.625D+00
 Gap=     0.166 Goal=   None    Shift=    0.000
 RMSDP=2.21D-04 MaxDP=8.89D-03 DE=-7.75D-03 OVMax= 2.21D-02

 Cycle   5  Pass 1  IDiag  1:
 RMSU=  8.73D-05    CP:  1.03D+00  9.86D-01  6.99D-01  6.74D-01
 E= -475.930815824705     Delta-E=       -0.002102305977 Rises=F Damp=F
 DIIS: error= 3.04D-04 at cycle   5 NSaved=   5.
 NSaved= 5 IEnMin= 5 EnMin= -475.930815824705     IErMin= 5 ErrMin= 3.04D-04
 ErrMax= 3.04D-04  0.00D+00 EMaxC= 1.00D-01 BMatC= 1.58D-05 BMatP= 1.95D-03
 IDIUse=3 WtCom= 9.97D-01 WtEn= 3.04D-03
 Coeff-Com: -0.501D-02 0.543D-02 0.126D+00 0.236D+00 0.637D+00
 Coeff-En:   0.000D+00 0.000D+00 0.000D+00 0.000D+00 0.100D+01
 Coeff:     -0.500D-02 0.542D-02 0.125D+00 0.236D+00 0.639D+00
 Gap=     0.166 Goal=   None    Shift=    0.000
 RMSDP=2.73D-05 MaxDP=8.80D-04 DE=-2.10D-03 OVMax= 1.64D-03

 Cycle   6  Pass 1  IDiag  1:
 RMSU=  1.45D-05    CP:  1.03D+00  9.83D-01  7.06D-01  6.94D-01  7.99D-01
 E= -475.930831576130     Delta-E=       -0.000015751424 Rises=F Damp=F
 DIIS: error= 8.38D-05 at cycle   6 NSaved=   6.
 NSaved= 6 IEnMin= 6 EnMin= -475.930831576130     IErMin= 6 ErrMin= 8.38D-05
 ErrMax= 8.38D-05  0.00D+00 EMaxC= 1.00D-01 BMatC= 7.00D-07 BMatP= 1.58D-05
 IDIUse=1 WtCom= 1.00D+00 WtEn= 0.00D+00
 Coeff-Com:  0.458D-03-0.191D-02 0.566D-02 0.221D-02 0.124D+00 0.870D+00
 Coeff:      0.458D-03-0.191D-02 0.566D-02 0.221D-02 0.124D+00 0.870D+00
 Gap=     0.166 Goal=   None    Shift=    0.000
 RMSDP=5.38D-06 MaxDP=1.79D-04 DE=-1.58D-05 OVMax= 3.84D-04

 Cycle   7  Pass 1  IDiag  1:
 RMSU=  2.91D-06    CP:  1.03D+00  9.83D-01  7.08D-01  6.91D-01  8.17D-01
                    CP:  8.90D-01
 E= -475.930832208861     Delta-E=       -0.000000632731 Rises=F Damp=F
 DIIS: error= 1.75D-05 at cycle   7 NSaved=   7.
 NSaved= 7 IEnMin= 7 EnMin= -475.930832208861     IErMin= 7 ErrMin= 1.75D-05
 ErrMax= 1.75D-05  0.00D+00 EMaxC= 1.00D-01 BMatC= 6.04D-08 BMatP= 7.00D-07
 IDIUse=1 WtCom= 1.00D+00 WtEn= 0.00D+00
 Coeff-Com:  0.398D-03-0.111D-02-0.371D-04-0.430D-02 0.409D-01 0.402D+00
 Coeff-Com:  0.562D+00
 Coeff:      0.398D-03-0.111D-02-0.371D-04-0.430D-02 0.409D-01 0.402D+00
 Coeff:      0.562D+00
 Gap=     0.166 Goal=   None    Shift=    0.000
 RMSDP=1.44D-06 MaxDP=6.25D-05 DE=-6.33D-07 OVMax= 1.23D-04

 Cycle   8  Pass 1  IDiag  1:
 RMSU=  9.75D-07    CP:  1.03D+00  9.83D-01  7.09D-01  6.91D-01  8.21D-01
                    CP:  9.00D-01  6.90D-01
 E= -475.930832276544     Delta-E=       -0.000000067683 Rises=F Damp=F
 DIIS: error= 4.08D-06 at cycle   8 NSaved=   8.
 NSaved= 8 IEnMin= 8 EnMin= -475.930832276544     IErMin= 8 ErrMin= 4.08D-06
 ErrMax= 4.08D-06  0.00D+00 EMaxC= 1.00D-01 BMatC= 4.59D-09 BMatP= 6.04D-08
 IDIUse=1 WtCom= 1.00D+00 WtEn= 0.00D+00
 Coeff-Com:  0.149D-03-0.317D-03-0.836D-03-0.238D-02 0.274D-02 0.705D-01
 Coeff-Com:  0.238D+00 0.692D+00
 Coeff:      0.149D-03-0.317D-03-0.836D-03-0.238D-02 0.274D-02 0.705D-01
 Coeff:      0.238D+00 0.692D+00
 Gap=     0.166 Goal=   None    Shift=    0.000
 RMSDP=3.86D-07 MaxDP=1.34D-05 DE=-6.77D-08 OVMax= 3.94D-05

 Cycle   9  Pass 1  IDiag  1:
 RMSU=  2.18D-07    CP:  1.03D+00  9.83D-01  7.09D-01  6.91D-01  8.21D-01
                    CP:  9.07D-01  7.54D-01  7.86D-01
 E= -475.930832281332     Delta-E=       -0.000000004788 Rises=F Damp=F
 DIIS: error= 5.34D-07 at cycle   9 NSaved=   9.
 NSaved= 9 IEnMin= 9 EnMin= -475.930832281332     IErMin= 9 ErrMin= 5.34D-07
 ErrMax= 5.34D-07  0.00D+00 EMaxC= 1.00D-01 BMatC= 8.01D-11 BMatP= 4.59D-09
 IDIUse=1 WtCom= 1.00D+00 WtEn= 0.00D+00
 Coeff-Com:  0.208D-04-0.359D-04-0.233D-03-0.453D-03-0.134D-02-0.220D-02
 Coeff-Com:  0.255D-01 0.154D+00 0.825D+00
 Coeff:      0.208D-04-0.359D-04-0.233D-03-0.453D-03-0.134D-02-0.220D-02
 Coeff:      0.255D-01 0.154D+00 0.825D+00
 Gap=     0.166 Goal=   None    Shift=    0.000
 RMSDP=9.46D-08 MaxDP=4.71D-06 DE=-4.79D-09 OVMax= 3.89D-06

 Cycle  10  Pass 1  IDiag  1:
 RMSU=  3.51D-08    CP:  1.03D+00  9.83D-01  7.09D-01  6.91D-01  8.21D-01
                    CP:  9.07D-01  7.62D-01  8.22D-01  9.09D-01
 E= -475.930832281396     Delta-E=       -0.000000000063 Rises=F Damp=F
 DIIS: error= 1.31D-07 at cycle  10 NSaved=  10.
 NSaved=10 IEnMin=10 EnMin= -475.930832281396     IErMin=10 ErrMin= 1.31D-07
 ErrMax= 1.31D-07  0.00D+00 EMaxC= 1.00D-01 BMatC= 2.58D-12 BMatP= 8.01D-11
 IDIUse=1 WtCom= 1.00D+00 WtEn= 0.00D+00
 Coeff-Com: -0.910D-06 0.281D-05-0.117D-04-0.155D-04-0.266D-03-0.254D-02
 Coeff-Com: -0.342D-02 0.105D-01 0.163D+00 0.833D+00
 Coeff:     -0.910D-06 0.281D-05-0.117D-04-0.155D-04-0.266D-03-0.254D-02
 Coeff:     -0.342D-02 0.105D-01 0.163D+00 0.833D+00
 Gap=     0.166 Goal=   None    Shift=    0.000
 RMSDP=1.24D-08 MaxDP=3.68D-07 DE=-6.34D-11 OVMax= 9.39D-07

 Cycle  11  Pass 1  IDiag  1:
 RMSU=  7.16D-09    CP:  1.03D+00  9.83D-01  7.09D-01  6.91D-01  8.21D-01
                    CP:  9.07D-01  7.63D-01  8.25D-01  9.42D-01  9.21D-01
 E= -475.930832281409     Delta-E=       -0.000000000013 Rises=F Damp=F
 DIIS: error= 5.40D-08 at cycle  11 NSaved=  11.
 NSaved=11 IEnMin=11 EnMin= -475.930832281409     IErMin=11 ErrMin= 5.40D-08
 ErrMax= 5.40D-08  0.00D+00 EMaxC= 1.00D-01 BMatC= 2.17D-13 BMatP= 2.58D-12
 IDIUse=1 WtCom= 1.00D+00 WtEn= 0.00D+00
 Coeff-Com: -0.813D-06 0.160D-05 0.829D-05 0.137D-04 0.139D-04-0.316D-03
 Coeff-Com: -0.229D-02-0.408D-02-0.144D-01 0.119D+00 0.902D+00
 Coeff:     -0.813D-06 0.160D-05 0.829D-05 0.137D-04 0.139D-04-0.316D-03
 Coeff:     -0.229D-02-0.408D-02-0.144D-01 0.119D+00 0.902D+00
 Gap=     0.166 Goal=   None    Shift=    0.000
 RMSDP=4.57D-09 MaxDP=1.70D-07 DE=-1.33D-11 OVMax= 3.05D-07

 SCF Done:  E(RB3LYP) =  -475.930832281     A.U. after   11 cycles
            NFock= 11  Conv=0.46D-08     -V/T= 2.0019
 KE= 4.750090609672D+02 PE=-1.298659226331D+03 EE= 2.540184966376D+02
 Leave Link  502 at Wed Aug  3 22:50:42 2016, MaxMem=    33554432 cpu:        89.6
 (Enter /home/proyectos/fulerenos/M3C-v2.0/M3C-deps_CCC/g09-AM64L-G09RevC.01/l801.exe)
 DoSCS=F DFT=T ScalE2(SS,OS)=  1.000000  1.000000
 Range of M.O.s used for correlation:     1   165
 NBasis=   165 NAE=    15 NBE=    15 NFC=     0 NFV=     0
 NROrb=    165 NOA=    15 NOB=    15 NVA=   150 NVB=   150

 **** Warning!!: The largest alpha MO coefficient is  0.52732727D+02

 Leave Link  801 at Wed Aug  3 22:50:42 2016, MaxMem=    33554432 cpu:         0.1
 (Enter /home/proyectos/fulerenos/M3C-v2.0/M3C-deps_CCC/g09-AM64L-G09RevC.01/l1101.exe)
 Using compressed storage, NAtomX=     7.
 Will process      8 centers per pass.
 Leave Link 1101 at Wed Aug  3 22:50:42 2016, MaxMem=    33554432 cpu:         1.1
 (Enter /home/proyectos/fulerenos/M3C-v2.0/M3C-deps_CCC/g09-AM64L-G09RevC.01/l1102.exe)
 Symmetrizing basis deriv contribution to polar:
 IMax=3 JMax=2 DiffMx= 0.00D+00
 Leave Link 1102 at Wed Aug  3 22:50:42 2016, MaxMem=    33554432 cpu:         0.1
 (Enter /home/proyectos/fulerenos/M3C-v2.0/M3C-deps_CCC/g09-AM64L-G09RevC.01/l1110.exe)
 Forming Gx(P) for the SCF density, NAtomX=     7.
 Integral derivatives from FoFJK, PRISM(SPDF).
 Do as many integral derivatives as possible in FoFJK.
 G2DrvN: MDV=      33554272.
 G2DrvN: will do     8 centers at a time, making    1 passes.
 Calling FoFCou, ICntrl=  3107 FMM=F I1Cent=   0 AccDes= 0.00D+00.
 FoFJK:  IHMeth= 1 ICntrl=    3107 DoSepK=F KAlg= 0 I1Cent=   0 FoldK=F
 IRaf=         0 NMat=   1 IRICut=       1 DoRegI=T DoRafI=F ISym2E= 1.
 FoFCou: FMM=F IPFlag=           0 FMFlag=      100000 FMFlg1=           0
         NFxFlg=           0 DoJE=F BraDBF=F KetDBF=F FulRan=T
         wScrn=  0.000000 ICntrl=    3107 IOpCl=  0 I1Cent=           0 NGrid=           0
         NMat0=    1 NMatS0=      1 NMatT0=    0 NMatD0=    1 NMtDS0=    0 NMtDT0=    0
 Petite list used in FoFCou.
 End of G2Drv F.D. properties file   721 does not exist.
 End of G2Drv F.D. properties file   722 does not exist.
 End of G2Drv F.D. properties file   788 does not exist.
 Leave Link 1110 at Wed Aug  3 22:51:00 2016, MaxMem=    33554432 cpu:        68.7
 (Enter /home/proyectos/fulerenos/M3C-v2.0/M3C-deps_CCC/g09-AM64L-G09RevC.01/l1002.exe)
 Minotr:  Closed shell wavefunction.
          IDoAtm=1111111
          Direct CPHF calculation.
          Differentiating once with respect to electric field.
                with respect to dipole field.
          Differentiating once with respect to nuclear coordinates.
          Using symmetry in CPHF.
          Requested convergence is 1.0D-08 RMS, and 1.0D-07 maximum.
          Secondary convergence is 1.0D-12 RMS, and 1.0D-12 maximum.
          NewPWx=T KeepS1=F KeepF1=F KeepIn=T MapXYZ=F SortEE=F KeepMc=T.
          MDV=      33554193 using IRadAn=       2.
 Generate precomputed XC quadrature information.
          Solving linear equations simultaneously, MaxMat=       0.
 FoFJK:  IHMeth= 1 ICntrl=       0 DoSepK=F KAlg= 0 I1Cent=   0 FoldK=F
 IRaf= 980000000 NMat=  21 IRICut=      52 DoRegI=T DoRafI=T ISym2E= 2.
 FoFCou: FMM=F IPFlag=           0 FMFlag=      100000 FMFlg1=           0
         NFxFlg=           0 DoJE=F BraDBF=F KetDBF=F FulRan=T
         wScrn=  0.000000 ICntrl=       0 IOpCl=  0 I1Cent=           0 NGrid=           0
         NMat0=   21 NMatS0=     21 NMatT0=    0 NMatD0=   21 NMtDS0=    0 NMtDT0=    0
 Integrals replicated using symmetry in FoFCou.
          There are    21 degrees of freedom in the 1st order CPHF.  IDoFFX=4 NUNeed=    21.
     21 vectors produced by pass  0 Test12= 1.07D-14 4.76D-09 XBig12= 4.74D+01 4.48D+00.
 AX will form    21 AO Fock derivatives at one time.
     21 vectors produced by pass  1 Test12= 1.07D-14 4.76D-09 XBig12= 7.59D+00 5.34D-01.
     21 vectors produced by pass  2 Test12= 1.07D-14 4.76D-09 XBig12= 1.29D-01 7.72D-02.
     21 vectors produced by pass  3 Test12= 1.07D-14 4.76D-09 XBig12= 4.52D-04 3.37D-03.
     21 vectors produced by pass  4 Test12= 1.07D-14 4.76D-09 XBig12= 7.88D-07 1.71D-04.
     13 vectors produced by pass  5 Test12= 1.07D-14 4.76D-09 XBig12= 1.21D-09 8.96D-06.
      3 vectors produced by pass  6 Test12= 1.07D-14 4.76D-09 XBig12= 1.84D-12 3.01D-07.
      2 vectors produced by pass  7 Test12= 1.07D-14 4.76D-09 XBig12= 5.30D-15 2.64D-08.
 InvSVY:  IOpt=1 It=  1 EMax= 3.55D-15
 Solved reduced A of dimension   123 with    21 vectors.
 FullF1:  Do perturbations    1 to    21.
 Isotropic polarizability for W=    0.000000       35.45 Bohr**3.
 End of Minotr F.D. properties file   721 does not exist.
 End of Minotr F.D. properties file   722 does not exist.
 End of Minotr F.D. properties file   788 does not exist.
 Leave Link 1002 at Wed Aug  3 22:52:02 2016, MaxMem=    33554432 cpu:       247.9
 (Enter /home/proyectos/fulerenos/M3C-v2.0/M3C-deps_CCC/g09-AM64L-G09RevC.01/l601.exe)
 Copying SCF densities to generalized density rwf, IOpCl= 0 IROHF=0.

 **********************************************************************

            Population analysis using the SCF density.

 **********************************************************************

 Orbital symmetries:
       Occupied  (A') (A') (A') (A') (A') (A") (A') (A') (A') (A')
                 (A') (A") (A') (A') (A")
       Virtual   (A') (A") (A') (A') (A') (A') (A') (A") (A") (A')
                 (A') (A") (A') (A') (A') (A") (A') (A") (A') (A')
                 (A') (A") (A') (A") (A') (A') (A') (A") (A') (A')
                 (A") (A") (A') (A') (A') (A') (A") (A') (A') (A')
                 (A') (A") (A') (A') (A') (A") (A') (A") (A') (A")
                 (A') (A") (A') (A") (A') (A') (A") (A') (A") (A')
                 (A') (A') (A") (A') (A') (A") (A') (A") (A') (A')
                 (A') (A') (A") (A') (A") (A") (A') (A') (A") (A")
                 (A') (A") (A') (A') (A") (A') (A') (A') (A") (A')
                 (A') (A') (A") (A') (A') (A") (A') (A') (A") (A')
                 (A") (A') (A') (A") (A") (A') (A') (A") (A') (A")
                 (A') (A') (A") (A') (A') (A") (A') (A') (A') (A")
                 (A") (A') (A') (A') (A") (A") (A') (A") (A') (A')
                 (A") (A') (A') (A") (A") (A') (A') (A") (A') (A')
                 (A') (A") (A') (A') (A") (A') (A') (A') (A') (A')
 The electronic state is 1-A'.
 Alpha  occ. eigenvalues --  -89.40667 -10.80352 -10.76622  -8.48743  -6.44956
 Alpha  occ. eigenvalues --   -6.44706  -6.44445  -1.35725  -1.25371  -1.08025
 Alpha  occ. eigenvalues --   -0.98768  -0.97006  -0.95156  -0.83796  -0.80946
 Alpha virt. eigenvalues --   -0.64372  -0.58677  -0.44393  -0.37751  -0.34656
 Alpha virt. eigenvalues --   -0.32575  -0.30015  -0.29741  -0.27393  -0.26665
 Alpha virt. eigenvalues --   -0.25622  -0.24497  -0.23919  -0.20637  -0.20069
 Alpha virt. eigenvalues --   -0.18586  -0.18219  -0.17122  -0.15139  -0.14339
 Alpha virt. eigenvalues --   -0.13632  -0.13460  -0.11761  -0.11474  -0.11116
 Alpha virt. eigenvalues --   -0.08634  -0.06339  -0.04887  -0.03977  -0.02848
 Alpha virt. eigenvalues --   -0.01170   0.00501   0.01379   0.02838   0.03981
 Alpha virt. eigenvalues --    0.06731   0.09075   0.10046   0.11191   0.13542
 Alpha virt. eigenvalues --    0.15241   0.19462   0.20423   0.22708   0.23375
 Alpha virt. eigenvalues --    0.24065   0.27027   0.27357   0.32422   0.34370
 Alpha virt. eigenvalues --    0.34661   0.39554   0.42426   0.50126   0.50328
 Alpha virt. eigenvalues --    0.51186   0.52803   0.53957   0.55941   0.58217
 Alpha virt. eigenvalues --    0.61982   0.65111   0.65235   0.68658   0.73619
 Alpha virt. eigenvalues --    0.78445   0.82488   0.83437   0.88501   0.90311
 Alpha virt. eigenvalues --    0.94740   0.98520   1.00375   1.07477   1.10892
 Alpha virt. eigenvalues --    1.14767   1.19126   1.21568   1.25781   1.30733
 Alpha virt. eigenvalues --    1.35558   1.38128   1.50078   1.53083   1.55102
 Alpha virt. eigenvalues --    1.59329   1.63198   1.71158   1.75418   1.76276
 Alpha virt. eigenvalues --    1.92054   1.93292   2.16074   2.20473   2.25082
 Alpha virt. eigenvalues --    2.28034   2.28775   2.31871   2.32912   2.40168
 Alpha virt. eigenvalues --    2.47305   2.51175   2.58038   2.58822   2.61928
 Alpha virt. eigenvalues --    2.62808   2.72032   2.91506   2.98642   3.05016
 Alpha virt. eigenvalues --    3.10847   3.16356   3.35533   3.41059   3.48929
 Alpha virt. eigenvalues --    3.53840   3.56141   3.65672   3.70079   3.72140
 Alpha virt. eigenvalues --    3.83308   3.89503   3.94988   3.98924   4.13511
 Alpha virt. eigenvalues --    4.32862   4.47752   4.51116   4.51664   4.78590
 Alpha virt. eigenvalues --    4.97179   5.07079   5.33334   6.45236   6.55653
 Alpha virt. eigenvalues --    6.59483   6.67773   6.75109   6.81610   7.03349
 Alpha virt. eigenvalues --    7.20444   7.36014   7.46505   8.10261  16.83833
 Alpha virt. eigenvalues --   17.06343  17.44696  23.39855  24.45528 188.97906
          Condensed to atoms (all electrons):
               1          2          3          4          5          6
     1  S   14.826900   0.561743  -0.128576   0.010485   0.010485   0.290075
     2  C    0.561743   5.778414  -0.876346  -0.039802  -0.039802   0.029266
     3  C   -0.128576  -0.876346   6.091342   0.394167   0.394167  -0.008381
     4  H    0.010485  -0.039802   0.394167   0.349579  -0.012379  -0.000539
     5  H    0.010485  -0.039802   0.394167  -0.012379   0.349579  -0.000539
     6  H    0.290075   0.029266  -0.008381  -0.000539  -0.000539   0.415166
     7  H   -0.054887   0.396689  -0.027562  -0.001726  -0.001726  -0.005403
               7
     1  S   -0.054887
     2  C    0.396689
     3  C   -0.027562
     4  H   -0.001726
     5  H   -0.001726
     6  H   -0.005403
     7  H    0.410203
 Mulliken charges:
               1
     1  S    0.483776
     2  C    0.189838
     3  C    0.161189
     4  H    0.300215
     5  H    0.300215
     6  H    0.280354
     7  H    0.284412
 Sum of Mulliken charges =   2.00000
 Mulliken charges with hydrogens summed into heavy atoms:
               1
     1  S    0.764130
     2  C    0.474251
     3  C    0.761619
 APT charges:
               1
     1  S    0.536152
     2  C    0.023466
     3  C    0.373359
     4  H    0.272149
     5  H    0.272149
     6  H    0.244637
     7  H    0.278088
 Sum of APT charges =   2.00000
 APT charges with hydrogens summed into heavy atoms:
               1
     1  S    0.780789
     2  C    0.301553
     3  C    0.917658
 Electronic spatial extent (au):  <R**2>=            230.6837
 Charge=              2.0000 electrons
 Dipole moment (field-independent basis, Debye):
    X=             -1.7129    Y=              4.1686    Z=             -0.0000  Tot=              4.5068
 Quadrupole moment (field-independent basis, Debye-Ang):
   XX=             -4.0581   YY=             -5.0778   ZZ=            -19.2330
   XY=            -11.2222   XZ=             -0.0000   YZ=             -0.0000
 Traceless Quadrupole moment (field-independent basis, Debye-Ang):
   XX=              5.3982   YY=              4.3785   ZZ=             -9.7767
   XY=            -11.2222   XZ=             -0.0000   YZ=             -0.0000
 Octapole moment (field-independent basis, Debye-Ang**2):
  XXX=             -5.7309  YYY=             11.4883  ZZZ=             -0.0000  XYY=             -6.7313
  XXY=             10.8963  XXZ=             -0.0000  XZZ=             -4.4286  YZZ=              3.1916
  YYZ=             -0.0000  XYZ=              0.0000
 Hexadecapole moment (field-independent basis, Debye-Ang**3):
 XXXX=            -56.6231 YYYY=           -108.4229 ZZZZ=            -23.3352 XXXY=             12.4402
 XXXZ=             -0.0000 YYYX=             21.7483 YYYZ=             -0.0000 ZZZX=             -0.0000
 ZZZY=             -0.0000 XXYY=            -13.3574 XXZZ=            -13.4762 YYZZ=            -21.1218
 XXYZ=             -0.0000 YYXZ=              0.0000 ZZXY=              6.1953
 N-N= 9.370083644441D+01 E-N=-1.298659224974D+03  KE= 4.750090609672D+02
 Symmetry A'   KE= 4.342370365416D+02
 Symmetry A"   KE= 4.077202442558D+01
  Exact polarizability:  39.822 -13.245  42.545   0.000  -0.000  23.986
 Approx polarizability:  65.088 -25.662  81.632   0.000  -0.000  35.982
 No NMR shielding tensors so no spin-rotation constants.
 Leave Link  601 at Wed Aug  3 22:52:02 2016, MaxMem=    33554432 cpu:         0.9
 (Enter /home/proyectos/fulerenos/M3C-v2.0/M3C-deps_CCC/g09-AM64L-G09RevC.01/l701.exe)
 Compute integral second derivatives.
 ... and contract with generalized density number  0.
 Leave Link  701 at Wed Aug  3 22:52:02 2016, MaxMem=    33554432 cpu:         1.5
 (Enter /home/proyectos/fulerenos/M3C-v2.0/M3C-deps_CCC/g09-AM64L-G09RevC.01/l702.exe)
 L702 exits ... SP integral derivatives will be done elsewhere.
 Leave Link  702 at Wed Aug  3 22:52:03 2016, MaxMem=    33554432 cpu:         0.1
 (Enter /home/proyectos/fulerenos/M3C-v2.0/M3C-deps_CCC/g09-AM64L-G09RevC.01/l703.exe)
 Compute integral second derivatives, UseDBF=F ICtDFT=           0.
 Integral derivatives from FoFJK, PRISM(SPDF).
 Calling FoFJK, ICntrl=    100127 FMM=F ISym2X=1 I1Cent= 0 IOpClX= 0 NMat=1 NMatS=1 NMatT=0.
 FoFJK:  IHMeth= 1 ICntrl=  100127 DoSepK=F KAlg= 0 I1Cent=   0 FoldK=F
 IRaf=         0 NMat=   1 IRICut=       1 DoRegI=T DoRafI=F ISym2E= 1.
 FoFCou: FMM=F IPFlag=           0 FMFlag=      100000 FMFlg1=         800
         NFxFlg=           0 DoJE=F BraDBF=F KetDBF=F FulRan=T
         wScrn=  0.000000 ICntrl=  100127 IOpCl=  0 I1Cent=           0 NGrid=           0
         NMat0=    1 NMatS0=      1 NMatT0=    0 NMatD0=    1 NMtDS0=    0 NMtDT0=    0
 Petite list used in FoFCou.
 Leave Link  703 at Wed Aug  3 22:52:37 2016, MaxMem=    33554432 cpu:       137.2
 (Enter /home/proyectos/fulerenos/M3C-v2.0/M3C-deps_CCC/g09-AM64L-G09RevC.01/l716.exe)
 Dipole        =-6.73924966D-01 1.64005500D+00-1.50219536D-15
 Polarizability= 3.98216273D+01-1.32454236D+01 4.25454582D+01
                 1.21952442D-08-3.63418643D-08 2.39864736D+01
 Full mass-weighted force constant matrix:
 Low frequencies ---   -5.1318   -0.0032   -0.0007    0.0022    7.8962   15.4314
 Low frequencies ---  226.2491  282.6248  492.6967
 Diagonal vibrational polarizability:
        5.4448729       4.1197101       7.1054579
 Harmonic frequencies (cm**-1), IR intensities (KM/Mole), Raman scattering
 activities (A**4/AMU), depolarization ratios for plane and unpolarized
 incident light, reduced masses (AMU), force constants (mDyne/A),
 and normal coordinates:
                      1                      2                      3
                     A"                     A'                     A"
 Frequencies --    226.2466               282.6247               492.6955
 Red. masses --      1.0960                 3.4437                 1.2710
 Frc consts  --      0.0331                 0.1621                 0.1818
 IR Inten    --      0.0072                10.4284                57.4872
  Atom  AN      X      Y      Z        X      Y      Z        X      Y      Z
     1  16    -0.00  -0.00  -0.03    -0.11   0.05   0.00     0.00  -0.00   0.00
     2   6     0.00   0.00   0.07     0.29   0.20  -0.00    -0.00   0.00  -0.15
     3   6    -0.00  -0.00  -0.02     0.02  -0.24   0.00    -0.00   0.00   0.02
     4   1     0.29   0.60  -0.08    -0.16  -0.51  -0.00     0.32  -0.12   0.23
     5   1    -0.29  -0.60  -0.08    -0.16  -0.51   0.00    -0.32   0.12   0.23
     6   1    -0.00   0.00   0.05    -0.04  -0.32   0.00     0.00   0.00   0.72
     7   1     0.00   0.00   0.32     0.36   0.08   0.00     0.00  -0.00   0.34
                      4                      5                      6
                     A"                     A'                     A'
 Frequencies --    774.0169               775.7305               964.3879
 Red. masses --      1.0941                 4.0952                 1.0556
 Frc consts  --      0.3862                 1.4520                 0.5784
 IR Inten    --      1.9851                32.3823                 5.9462
  Atom  AN      X      Y      Z        X      Y      Z        X      Y      Z
     1  16     0.00  -0.00   0.03    -0.08   0.16   0.00    -0.01   0.02  -0.00
     2   6     0.00   0.00  -0.06    -0.09  -0.24  -0.00    -0.02  -0.04   0.00
     3   6    -0.00   0.00  -0.04     0.27  -0.22  -0.00     0.03   0.02  -0.00
     4   1     0.09  -0.14   0.06     0.48   0.00   0.02    -0.07  -0.15   0.00
     5   1    -0.09   0.14   0.06     0.48   0.00  -0.02    -0.07  -0.15  -0.00
     6   1     0.00  -0.00  -0.65    -0.09   0.20  -0.00    -0.15   0.58  -0.00
     7   1     0.00  -0.00   0.71    -0.49   0.19   0.00     0.51  -0.57  -0.00
                      7                      8                      9
                     A"                     A'                     A'
 Frequencies --    975.2092              1027.3844              1196.7911
 Red. masses --      1.5638                 1.2939                 1.6249
 Frc consts  --      0.8762                 0.8046                 1.3712
 IR Inten    --      6.4890                38.4776                21.7297
  Atom  AN      X      Y      Z        X      Y      Z        X      Y      Z
     1  16     0.00  -0.00  -0.01    -0.01  -0.07   0.00    -0.01   0.01   0.00
     2   6     0.00   0.00   0.17     0.03   0.10  -0.00     0.14  -0.04  -0.00
     3   6    -0.00  -0.00  -0.15     0.05  -0.01   0.00    -0.15  -0.11   0.00
     4   1     0.53  -0.30   0.22     0.02  -0.03  -0.00     0.21   0.62  -0.05
     5   1    -0.53   0.30   0.22     0.02  -0.03   0.00     0.21   0.62   0.05
     6   1    -0.00   0.00  -0.11    -0.22   0.79  -0.00    -0.07   0.24  -0.00
     7   1    -0.00   0.00  -0.30    -0.32   0.45   0.00     0.15  -0.09   0.00
                     10                     11                     12
                     A'                     A'                     A'
 Frequencies --   1364.7866              1406.6835              2519.2237
 Red. masses --      1.8983                 1.5799                 1.0401
 Frc consts  --      2.0832                 1.8419                 3.8892
 IR Inten    --     43.4884                 8.3325               147.5812
  Atom  AN      X      Y      Z        X      Y      Z        X      Y      Z
     1  16     0.02  -0.03   0.00     0.01  -0.01   0.00    -0.03  -0.01  -0.00
     2   6    -0.16   0.20  -0.00    -0.10   0.10  -0.00     0.00   0.00   0.00
     3   6    -0.00  -0.09   0.00     0.14  -0.11   0.00    -0.00  -0.00   0.00
     4   1     0.57   0.01   0.25    -0.39   0.36  -0.42     0.00  -0.00  -0.01
     5   1     0.57   0.01  -0.25    -0.39   0.36   0.42     0.00  -0.00   0.01
     6   1     0.03  -0.11  -0.00     0.02  -0.08  -0.00     0.97   0.23   0.00
     7   1     0.29  -0.21   0.00     0.13  -0.10   0.00    -0.01  -0.02   0.00
                     13                     14                     15
                     A'                     A'                     A"
 Frequencies --   2771.3328              2942.6868              3043.7912
 Red. masses --      1.0778                 1.0503                 1.1209
 Frc consts  --      4.8769                 5.3585                 6.1185
 IR Inten    --    278.0465               225.2281               156.9291
  Atom  AN      X      Y      Z        X      Y      Z        X      Y      Z
     1  16    -0.00   0.00  -0.00    -0.00   0.00   0.00    -0.00   0.00  -0.00
     2   6    -0.05  -0.06   0.00    -0.00  -0.00  -0.00    -0.00  -0.00   0.00
     3   6    -0.01   0.00   0.00     0.05  -0.03   0.00    -0.00   0.00  -0.10
     4   1     0.01  -0.01  -0.02    -0.30   0.20   0.61    -0.30   0.20   0.60
     5   1     0.01  -0.01   0.02    -0.30   0.20  -0.61     0.30  -0.20   0.60
     6   1     0.03   0.01   0.00     0.01   0.00  -0.00     0.00  -0.00  -0.00
     7   1     0.70   0.70  -0.00     0.03   0.03   0.00     0.00   0.00  -0.00

 -------------------
 - Thermochemistry -
 -------------------
 Temperature   298.150 Kelvin.  Pressure   1.00000 Atm.
 Atom     1 has atomic number 16 and mass  31.97207
 Atom     2 has atomic number  6 and mass  12.00000
 Atom     3 has atomic number  6 and mass  12.00000
 Atom     4 has atomic number  1 and mass   1.00783
 Atom     5 has atomic number  1 and mass   1.00783
 Atom     6 has atomic number  1 and mass   1.00783
 Atom     7 has atomic number  1 and mass   1.00783
 Molecular mass:    60.00337 amu.
 Principal axes and moments of inertia in atomic units:
                           1         2         3
     Eigenvalues --    30.74363 325.72458 343.55708
           X           -0.61736   0.78668   0.00000
           Y            0.78668   0.61736   0.00000
           Z           -0.00000   0.00000   1.00000
 This molecule is an asymmetric top.
 Rotational symmetry number  1.
 Rotational temperatures (Kelvin)      2.81729     0.26591     0.25211
 Rotational constants (GHZ):          58.70294     5.54070     5.25310
 Zero-point vibrational energy     124193.9 (Joules/Mol)
                                   29.68304 (Kcal/Mol)
 Warning -- explicit consideration of   3 degrees of freedom as
           vibrations may cause significant error
 Vibrational temperatures:    325.52   406.63   708.88  1113.64  1116.10
          (Kelvin)           1387.54  1403.11  1478.18  1721.91  1963.62
                             2023.90  3624.60  3987.32  4233.86  4379.33
 
 Zero-point correction=                           0.047303 (Hartree/Particle)
 Thermal correction to Energy=                    0.051649
 Thermal correction to Enthalpy=                  0.052593
 Thermal correction to Gibbs Free Energy=         0.021287
 Sum of electronic and zero-point Energies=           -475.883529
 Sum of electronic and thermal Energies=              -475.879183
 Sum of electronic and thermal Enthalpies=            -475.878239
 Sum of electronic and thermal Free Energies=         -475.909545
 
                     E (Thermal)             CV                S
                      KCal/Mol        Cal/Mol-Kelvin    Cal/Mol-Kelvin
 Total                   32.410             13.724             65.889
 Electronic               0.000              0.000              0.000
 Translational            0.889              2.981             38.196
 Rotational               0.889              2.981             22.758
 Vibrational             30.633              7.763              4.936
 Vibration     1          0.650              1.801              1.909
 Vibration     2          0.682              1.706              1.518
 Vibration     3          0.848              1.266              0.677
                       Q            Log10(Q)             Ln(Q)
 Total Bot       0.161687D-09         -9.791325        -22.545360
 Total V=0       0.925702D+12         11.966471         27.553818
 Vib (Bot)       0.421509D-21        -21.375193        -49.218200
 Vib (Bot)    1  0.871967D+00         -0.059500         -0.137004
 Vib (Bot)    2  0.679327D+00         -0.167921         -0.386653
 Vib (Bot)    3  0.335736D+00         -0.474002         -1.091431
 Vib (V=0)       0.241326D+01          0.382604          0.880977
 Vib (V=0)    1  0.150515D+01          0.177580          0.408893
 Vib (V=0)    2  0.134350D+01          0.128236          0.295275
 Vib (V=0)    3  0.110226D+01          0.042285          0.097364
 Electronic      0.100000D+01          0.000000          0.000000
 Translational   0.182692D+08          7.261719         16.720725
 Rotational      0.209966D+05          4.322149          9.952115
 
                                                              b3lyp opt
                                                             IR Spectrum
 
     3    2      2         2                                              1 1      1      1                                          
     0    9      7         5                                              4 3      1      099      77           4        2 2         
     4    4      7         1                                              0 6      9      276      77           9        8 2         
     4    3      1         9                                              7 5      7      754      64           3        3 6         
 
     X    X      X         X                                              X X      X      XXX      XX           X        X           
     X    X      X         X                                                X      X      X        X            X                    
     X    X      X         X                                                X             X                     X                    
     X    X      X         X                                                                                    X                    
     X    X      X         X                                                                                                         
     X    X      X         X                                                                                                         
     X    X      X         X                                                                                                         
     X    X      X         X                                                                                                         
     X    X      X         X                                                                                                         
     X    X      X         X                                                                                                         
     X    X      X         X                                                                                                         
          X      X                                                                                                                   
          X      X                                                                                                                   
          X      X                                                                                                                   
          X      X                                                                                                                   
          X      X                                                                                                                   
                 X                                                                                                                   
                 X                                                                                                                   
                 X                                                                                                                   
                 X                                                                                                                   
 
 ***** Axes restored to original set *****
 -------------------------------------------------------------------
 Center     Atomic                   Forces (Hartrees/Bohr)
 Number     Number              X              Y              Z
 -------------------------------------------------------------------
      1       16          -0.000126337    0.000054027   -0.000056457
      2        6           0.000058074   -0.000039582   -0.000016069
      3        6          -0.000009612    0.000022359    0.000047704
      4        1           0.000008969    0.000001702   -0.000024305
      5        1          -0.000003380   -0.000019426   -0.000016890
      6        1           0.000062636   -0.000033999    0.000007437
      7        1           0.000009650    0.000014919    0.000058581
 -------------------------------------------------------------------
 Cartesian Forces:  Max     0.000126337 RMS     0.000043841
 Z-matrix is all fixed cartesians, so copy forces.
 Force constants in Cartesian coordinates: 
                1             2             3             4             5 
      1  0.232999D+00
      2 -0.103791D+00  0.113175D+00
      3  0.543618D-01  0.847258D-01  0.354728D+00
      4 -0.611163D-01 -0.948841D-02 -0.846338D-01  0.305464D+00
      5 -0.103118D-04 -0.413588D-01 -0.422663D-01 -0.882128D-01  0.225631D+00
      6 -0.576271D-01 -0.580511D-01 -0.287913D+00  0.437547D-01  0.130526D+00
      7  0.176930D-02 -0.713044D-03  0.146138D-02 -0.861629D-01  0.211031D-01
      8  0.368802D-02 -0.638987D-02 -0.111301D-01  0.212939D-01 -0.122302D+00
      9  0.140017D-01 -0.184596D-01 -0.296084D-01  0.562195D-01 -0.754511D-01
     10 -0.256557D-02 -0.122665D-03  0.384679D-03  0.165847D-01  0.107175D-01
     11  0.139469D-02  0.979553D-03  0.315308D-02 -0.600380D-02 -0.605054D-02
     12 -0.190705D-03 -0.237047D-02  0.817916D-03  0.130733D-02 -0.210341D-01
     13 -0.729966D-03  0.157778D-02 -0.316599D-02  0.894456D-02 -0.400457D-02
     14  0.158689D-02 -0.115562D-02 -0.115151D-02  0.582028D-02  0.113561D-01
     15  0.175887D-02  0.182988D-02  0.111748D-02  0.150878D-01  0.353433D-02
     16 -0.172178D+00  0.105332D+00  0.344992D-01  0.621882D-02 -0.726393D-02
     17  0.960865D-01 -0.773075D-01 -0.241353D-01 -0.213107D-03 -0.526997D-02
     18  0.815474D-02 -0.873766D-02 -0.239930D-01  0.172877D-01 -0.142163D-01
     19  0.182158D-02  0.720534D-02 -0.290724D-02 -0.189933D+00  0.676709D-01
     20  0.104538D-02  0.120569D-01 -0.919568D-02  0.768039D-01 -0.620064D-01
     21 -0.204593D-01  0.106309D-02 -0.151486D-01 -0.490232D-01  0.189078D-01
                6             7             8             9            10 
      6  0.573052D+00
      7  0.556758D-01  0.312870D+00
      8 -0.751334D-01  0.849889D-01  0.510893D+00
      9 -0.204849D+00 -0.142710D+00  0.472851D-01  0.441037D+00
     10  0.144868D-01 -0.714028D-01 -0.604328D-01 -0.154482D-01  0.456564D-01
     11 -0.130682D-01 -0.609132D-01 -0.281289D+00 -0.336415D-01  0.690352D-01
     12  0.128897D-02 -0.137639D-01 -0.397051D-01 -0.567422D-01  0.660958D-03
     13  0.215590D-01 -0.140224D+00 -0.701915D-01  0.909091D-01  0.109546D-01
     14 -0.159170D-01 -0.672865D-01 -0.107430D+00  0.814528D-01 -0.168115D-01
     15 -0.847752D-02  0.961333D-01  0.834786D-01 -0.161780D+00  0.192405D-02
     16 -0.280282D-02  0.305871D-02  0.424960D-02 -0.421632D-02  0.403357D-03
     17 -0.247385D-02  0.522365D-02  0.889566D-02 -0.260003D-02  0.945925D-04
     18 -0.162431D-01 -0.144090D-02 -0.422220D-02 -0.156911D-02  0.394684D-03
     19 -0.750464D-01 -0.199082D-01  0.164039D-01  0.124400D-02  0.369335D-03
     20  0.341177D-01  0.175971D-01 -0.237789D-02  0.141441D-02 -0.248039D-02
     21 -0.568575D-01  0.464409D-02 -0.572861D-03  0.135128D-01 -0.240302D-02
               11            12            13            14            15 
     11  0.289959D+00
     12  0.478056D-01  0.456162D-01
     13 -0.504041D-02  0.921851D-02  0.121277D+00
     14 -0.305160D-02  0.144665D-01  0.785872D-01  0.101279D+00
     15 -0.508188D-02  0.115643D-01 -0.116186D+00 -0.801593D-01  0.158675D+00
     16  0.301594D-03  0.963549D-03 -0.666638D-03 -0.942549D-03 -0.522096D-03
     17 -0.679867D-03  0.164570D-02 -0.504777D-03 -0.701800D-03 -0.163550D-02
     18 -0.275850D-03 -0.976328D-03  0.704324D-03 -0.982737D-04  0.115600D-03
     19  0.122597D-02  0.180421D-02  0.444091D-03 -0.953813D-03  0.180436D-02
     20  0.132695D-03 -0.808195D-03 -0.423687D-03 -0.296720D-03 -0.196610D-02
     21  0.110866D-02 -0.156887D-02 -0.303870D-02  0.140671D-02 -0.121421D-02
               16            17            18            19            20 
     16  0.162606D+00
     17 -0.972798D-01  0.793316D-01
     18 -0.282142D-01  0.266885D-01  0.421656D-01
     19  0.558366D-03 -0.340705D-02  0.311370D-02  0.206648D+00
     20 -0.439708D-02 -0.426813D-02  0.861702D-03 -0.881453D-01  0.567596D-01
     21  0.292734D-03  0.251049D-02  0.500339D-03  0.699874D-01 -0.244239D-01
               21 
     21  0.607761D-01
 Leave Link  716 at Wed Aug  3 22:52:37 2016, MaxMem=    33554432 cpu:         0.1
 (Enter /home/proyectos/fulerenos/M3C-v2.0/M3C-deps_CCC/g09-AM64L-G09RevC.01/l103.exe)

 GradGradGradGradGradGradGradGradGradGradGradGradGradGradGradGradGradGrad
 Berny optimization.
 Search for a local minimum.
 Step number   1 out of a maximum of    2
 All quantities printed in internal units (Hartrees-Bohrs-Radians)
 Second derivative matrix not updated -- analytic derivatives used.
 ITU=  0
     Eigenvalues ---    0.00242   0.01227   0.01413   0.03596   0.03924
     Eigenvalues ---    0.05570   0.10863   0.15607   0.21167   0.24339
     Eigenvalues ---    0.36235   0.50002   0.69004   0.73073   0.92918
 Angle between quadratic step and forces=  58.23 degrees.
 ClnCor:  largest displacement from symmetrization is 2.71D-11 for atom     5.
 Linear search not attempted -- first point.
 ClnCor:  largest displacement from symmetrization is 3.62D-15 for atom     4.
 B after Tr=    -0.000069    0.000042    0.000004
         Rot=    1.000000    0.000012    0.000020   -0.000007 Ang=   0.00 deg.
 Variable       Old X    -DE/DX   Delta X   Delta X   Delta X     New X
                                 (Linear)    (Quad)   (Total)
    X1        0.30023  -0.00013   0.00000  -0.00030  -0.00047   0.29976
    Y1        0.43010   0.00005   0.00000   0.00019   0.00029   0.43039
    Z1        2.35909  -0.00006   0.00000   0.00003   0.00004   2.35912
    X2       -0.43115   0.00006   0.00000   0.00046   0.00041  -0.43073
    Y2       -0.17082  -0.00004   0.00000  -0.00024  -0.00022  -0.17104
    Z2       -0.57121  -0.00002   0.00000   0.00007   0.00006  -0.57114
    X3        0.69498  -0.00001   0.00000   0.00003   0.00009   0.69507
    Y3       -1.53214   0.00002   0.00000  -0.00006  -0.00007  -1.53220
    Z3       -2.57467   0.00005   0.00000  -0.00011  -0.00004  -2.57471
    X4        0.18358   0.00001   0.00000  -0.00001   0.00009   0.18366
    Y4       -3.52473   0.00000   0.00000   0.00003   0.00000  -3.52472
    Z4       -2.93244  -0.00002   0.00000  -0.00058  -0.00049  -2.93292
    X5        1.91208  -0.00000   0.00000  -0.00019  -0.00009   1.91198
    Y5       -0.56737  -0.00002   0.00000  -0.00028  -0.00030  -0.56768
    Z5       -3.97033  -0.00002   0.00000  -0.00047  -0.00038  -3.97071
    X6       -1.78920   0.00006   0.00000  -0.00009  -0.00030  -1.78950
    Y6        1.84651  -0.00003   0.00000   0.00002   0.00011   1.84662
    Z6        2.91527   0.00001   0.00000  -0.00009  -0.00020   2.91507
    X7       -2.23729   0.00001   0.00000   0.00030   0.00028  -2.23701
    Y7        0.59467   0.00001   0.00000   0.00021   0.00019   0.59486
    Z7       -1.39797   0.00006   0.00000   0.00111   0.00100  -1.39696
         Item               Value     Threshold  Converged?
 Maximum Force            0.000126     0.000450     YES
 RMS     Force            0.000044     0.000300     YES
 Maximum Displacement     0.001004     0.001800     YES
 RMS     Displacement     0.000331     0.001200     YES
 Predicted change in Energy=-8.249549D-08
 Optimization completed.
    -- Stationary point found.
 GradGradGradGradGradGradGradGradGradGradGradGradGradGradGradGradGradGrad

 Leave Link  103 at Wed Aug  3 22:52:37 2016, MaxMem=    33554432 cpu:         0.1
 (Enter /home/proyectos/fulerenos/M3C-v2.0/M3C-deps_CCC/g09-AM64L-G09RevC.01/l9999.exe)
 1\1\GINC-DEPAZ30\Freq\RB3LYP\6-311++G(3df,2p)\C2H4S1(2+)\NAGUIRRE\03-A
 ug-2016\0\\#p b3lyp/6-311++G(3df,2p) freq\\b3lyp opt\\2,1\S,0.15887486
 1,0.227600379,1.24837567\C,-0.2281522929,-0.0903950949,-0.3022692081\C
 ,0.3677684419,-0.8107719942,-1.3624570509\H,0.097144564,-1.865206217,-
 1.551779747\H,1.011827668,-0.3002416165,-2.1010085681\H,-0.9468017451,
 0.9771322558,1.5426922421\H,-1.1839228145,0.3146865271,-0.7397712827\\
 Version=EM64L-G09RevE.01\State=1-A'\HF=-475.9308323\RMSD=4.567e-09\RMS
 F=4.384e-05\ZeroPoint=0.0473029\Thermal=0.0516489\Dipole=-0.3317554,-0
 .4009716,-1.6950267\DipoleDeriv=0.638683,0.0148822,0.0572258,0.0378796
 ,0.5678416,-0.1134129,0.122754,-0.1517126,0.4019302,-0.2586968,0.29968
 69,0.2661776,0.2211972,-0.0540744,-0.0541672,0.0425302,0.0765492,0.383
 1678,0.508457,-0.1602473,-0.0063551,-0.1597674,0.3372509,0.0164433,-0.
 0049876,0.015644,0.2743697,0.1599668,0.0350618,0.025525,0.0142395,0.43
 79564,0.1897703,-0.0187879,0.0618987,0.2185247,0.2653657,0.0229739,-0.
 1946948,0.0548736,0.1782625,-0.1031299,-0.1188178,0.0062933,0.3728197,
 0.244961,-0.0841413,-0.1471109,-0.0814508,0.2706804,0.0961377,-0.13944
 48,0.0916571,0.2182702,0.4412633,-0.1282162,-0.0007676,-0.0869718,0.26
 20827,-0.0316413,0.1167538,-0.1003297,0.1309178\Polar=27.300678,-2.709
 4723,29.2066369,-2.2008703,10.361915,49.8462442\PG=CS [SG(C2H2S1),X(H2
 )]\NImag=0\\0.23299918,-0.10379116,0.11317528,0.05436180,0.08472583,0.
 35472757,-0.06111633,-0.00948841,-0.08463382,0.30546426,-0.00001031,-0
 .04135878,-0.04226628,-0.08821278,0.22563150,-0.05762707,-0.05805105,-
 0.28791301,0.04375467,0.13052563,0.57305162,0.00176930,-0.00071304,0.0
 0146138,-0.08616288,0.02110310,0.05567582,0.31286978,0.00368802,-0.006
 38987,-0.01113011,0.02129392,-0.12230185,-0.07513336,0.08498890,0.5108
 9256,0.01400170,-0.01845962,-0.02960836,0.05621953,-0.07545115,-0.2048
 4946,-0.14270982,0.04728507,0.44103677,-0.00256557,-0.00012266,0.00038
 468,0.01658467,0.01071753,0.01448680,-0.07140282,-0.06043277,-0.015448
 15,0.04565642,0.00139469,0.00097955,0.00315308,-0.00600380,-0.00605054
 ,-0.01306816,-0.06091325,-0.28128896,-0.03364148,0.06903522,0.28995872
 ,-0.00019071,-0.00237047,0.00081792,0.00130733,-0.02103407,0.00128897,
 -0.01376385,-0.03970513,-0.05674218,0.00066096,0.04780563,0.04561619,-
 0.00072997,0.00157778,-0.00316599,0.00894456,-0.00400457,0.02155902,-0
 .14022390,-0.07019154,0.09090906,0.01095461,-0.00504041,0.00921851,0.1
 2127725,0.00158689,-0.00115562,-0.00115151,0.00582028,0.01135607,-0.01
 591695,-0.06728649,-0.10742965,0.08145279,-0.01681152,-0.00305160,0.01
 446654,0.07858720,0.10127932,0.00175887,0.00182988,0.00111748,0.015087
 75,0.00353433,-0.00847752,0.09613329,0.08347859,-0.16178041,0.00192405
 ,-0.00508188,0.01156430,-0.11618622,-0.08015931,0.15867477,-0.17217819
 ,0.10533215,0.03449920,0.00621882,-0.00726393,-0.00280282,0.00305871,0
 .00424960,-0.00421632,0.00040336,0.00030159,0.00096355,-0.00066664,-0.
 00094255,-0.00052210,0.16260557,0.09608649,-0.07730745,-0.02413534,-0.
 00021311,-0.00526997,-0.00247385,0.00522365,0.00889566,-0.00260003,0.0
 0009459,-0.00067987,0.00164570,-0.00050478,-0.00070180,-0.00163550,-0.
 09727979,0.07933156,0.00815474,-0.00873766,-0.02399300,0.01728769,-0.0
 1421625,-0.01624307,-0.00144090,-0.00422220,-0.00156911,0.00039468,-0.
 00027585,-0.00097633,0.00070432,-0.00009827,0.00011560,-0.02821424,0.0
 2668854,0.04216557,0.00182158,0.00720534,-0.00290724,-0.18993310,0.067
 67095,-0.07504642,-0.01990819,0.01640387,0.00124400,0.00036933,0.00122
 597,0.00180421,0.00044409,-0.00095381,0.00180436,0.00055837,-0.0034070
 5,0.00311370,0.20664792,0.00104538,0.01205689,-0.00919568,0.07680389,-
 0.06200644,0.03411775,0.01759714,-0.00237789,0.00141441,-0.00248039,0.
 00013270,-0.00080820,-0.00042369,-0.00029672,-0.00196610,-0.00439708,-
 0.00426813,0.00086170,-0.08814526,0.05675959,-0.02045933,0.00106309,-0
 .01514859,-0.04902316,0.01890779,-0.05685753,0.00464409,-0.00057286,0.
 01351275,-0.00240302,0.00110866,-0.00156887,-0.00303870,0.00140671,-0.
 00121421,0.00029273,0.00251049,0.00050034,0.06998739,-0.02442388,0.060
 77612\\0.00012634,-0.00005403,0.00005646,-0.00005807,0.00003958,0.0000
 1607,0.00000961,-0.00002236,-0.00004770,-0.00000897,-0.00000170,0.0000
 2430,0.00000338,0.00001943,0.00001689,-0.00006264,0.00003400,-0.000007
 44,-0.00000965,-0.00001492,-0.00005858\\\@


 K N O W I N G  IS A BARRIER WHICH PREVENTS LEARNING

                     -- TEACHING OF THE BENE GESSERIT
 Job cpu time:       0 days  0 hours  9 minutes 13.3 seconds.
 File lengths (MBytes):  RWF=     22 Int=      0 D2E=      0 Chk=      3 Scr=      1
 Normal termination of Gaussian 09 at Wed Aug  3 22:52:37 2016.
