 Entering Gaussian System, Link 0=/home/proyectos/fulerenos/M3C-v2.0/M3C-deps_CCC/g09-AM64L-G09RevC.01/g09
 Initial command:
 /home/proyectos/fulerenos/M3C-v2.0/M3C-deps_CCC/g09-AM64L-G09RevC.01/l1.exe "/scratch/naguirre/gaussian/Gau-31801.inp" -scrdir="/scratch/naguirre/gaussian/"
 Entering Link 1 = /home/proyectos/fulerenos/M3C-v2.0/M3C-deps_CCC/g09-AM64L-G09RevC.01/l1.exe PID=     31809.
  
 Copyright (c) 1988,1990,1992,1993,1995,1998,2003,2009,2015,
            Gaussian, Inc.  All Rights Reserved.
  
 This is part of the Gaussian(R) 09 program.  It is based on
 the Gaussian(R) 03 system (copyright 2003, Gaussian, Inc.),
 the Gaussian(R) 98 system (copyright 1998, Gaussian, Inc.),
 the Gaussian(R) 94 system (copyright 1995, Gaussian, Inc.),
 the Gaussian 92(TM) system (copyright 1992, Gaussian, Inc.),
 the Gaussian 90(TM) system (copyright 1990, Gaussian, Inc.),
 the Gaussian 88(TM) system (copyright 1988, Gaussian, Inc.),
 the Gaussian 86(TM) system (copyright 1986, Carnegie Mellon
 University), and the Gaussian 82(TM) system (copyright 1983,
 Carnegie Mellon University). Gaussian is a federally registered
 trademark of Gaussian, Inc.
  
 This software contains proprietary and confidential information,
 including trade secrets, belonging to Gaussian, Inc.
  
 This software is provided under written license and may be
 used, copied, transmitted, or stored only in accord with that
 written license.
  
 The following legend is applicable only to US Government
 contracts under FAR:
  
                    RESTRICTED RIGHTS LEGEND
  
 Use, reproduction and disclosure by the US Government is
 subject to restrictions as set forth in subparagraphs (a)
 and (c) of the Commercial Computer Software - Restricted
 Rights clause in FAR 52.227-19.
  
 Gaussian, Inc.
 340 Quinnipiac St., Bldg. 40, Wallingford CT 06492
  
  
 ---------------------------------------------------------------
 Warning -- This program may not be used in any manner that
 competes with the business of Gaussian, Inc. or will provide
 assistance to any competitor of Gaussian, Inc.  The licensee
 of this program is prohibited from giving any competitor of
 Gaussian, Inc. access to this program.  By using this program,
 the user acknowledges that Gaussian, Inc. is engaged in the
 business of creating and licensing software in the field of
 computational chemistry and represents and warrants to the
 licensee that it is not a competitor of Gaussian, Inc. and that
 it will not use this program in any manner prohibited above.
 ---------------------------------------------------------------
  

 Cite this work as:
 Gaussian 09, Revision E.01,
 M. J. Frisch, G. W. Trucks, H. B. Schlegel, G. E. Scuseria, 
 M. A. Robb, J. R. Cheeseman, G. Scalmani, V. Barone, B. Mennucci, 
 G. A. Petersson, H. Nakatsuji, M. Caricato, X. Li, H. P. Hratchian, 
 A. F. Izmaylov, J. Bloino, G. Zheng, J. L. Sonnenberg, M. Hada, 
 M. Ehara, K. Toyota, R. Fukuda, J. Hasegawa, M. Ishida, T. Nakajima, 
 Y. Honda, O. Kitao, H. Nakai, T. Vreven, J. A. Montgomery, Jr., 
 J. E. Peralta, F. Ogliaro, M. Bearpark, J. J. Heyd, E. Brothers, 
 K. N. Kudin, V. N. Staroverov, T. Keith, R. Kobayashi, J. Normand, 
 K. Raghavachari, A. Rendell, J. C. Burant, S. S. Iyengar, J. Tomasi, 
 M. Cossi, N. Rega, J. M. Millam, M. Klene, J. E. Knox, J. B. Cross, 
 V. Bakken, C. Adamo, J. Jaramillo, R. Gomperts, R. E. Stratmann, 
 O. Yazyev, A. J. Austin, R. Cammi, C. Pomelli, J. W. Ochterski, 
 R. L. Martin, K. Morokuma, V. G. Zakrzewski, G. A. Voth, 
 P. Salvador, J. J. Dannenberg, S. Dapprich, A. D. Daniels, 
 O. Farkas, J. B. Foresman, J. V. Ortiz, J. Cioslowski, 
 and D. J. Fox, Gaussian, Inc., Wallingford CT, 2013.
 
 ******************************************
 Gaussian 09:  EM64L-G09RevE.01 30-Nov-2015
                 3-Aug-2016 
 ******************************************
 %NProcShared=4
 Will use up to    4 processors via shared memory.
 ------------------------------
 #p b3lyp/6-311++G(3df,2p) freq
 ------------------------------
 1/10=4,30=1,38=1/1,3;
 2/12=2,17=6,18=5,40=1/2;
 3/5=4,6=6,7=1216,11=2,16=1,25=1,30=1,71=2,74=-5,140=1/1,2,3;
 4//1;
 5/5=2,38=5,98=1/2;
 8/6=4,10=90,11=11/1;
 11/6=1,8=1,9=11,15=111,16=1/1,2,10;
 10/6=1/2;
 6/7=2,8=2,9=2,10=2,18=1,28=1/1;
 7/8=1,10=1,25=1/1,2,3,16;
 1/10=4,30=1/3;
 99//99;
 Leave Link    1 at Wed Aug  3 22:56:01 2016, MaxMem=           0 cpu:         0.3
 (Enter /home/proyectos/fulerenos/M3C-v2.0/M3C-deps_CCC/g09-AM64L-G09RevC.01/l101.exe)
 ---------
 b3lyp opt
 ---------
 Symbolic Z-matrix:
 Charge =  2 Multiplicity = 1
 S                     0.77101  -0.36606   0.18793 
 H                     0.83271  -0.85418  -1.11097 
 H                     1.60476  -1.11836   1.00533 
 H                     1.18133   0.96082   0.20388 
 H                    -0.53474  -0.45252   0.65349 
 
 NAtoms=      5 NQM=        5 NQMF=       0 NMMI=      0 NMMIF=      0
                NMic=       0 NMicF=      0.
                    Isotopes and Nuclear Properties:
 (Nuclear quadrupole moments (NQMom) in fm**2, nuclear magnetic moments (NMagM)
  in nuclear magnetons)

  Atom         1           2           3           4           5
 IAtWgt=          32           1           1           1           1
 AtmWgt=  31.9720718   1.0078250   1.0078250   1.0078250   1.0078250
 NucSpn=           0           1           1           1           1
 AtZEff=   0.0000000   0.0000000   0.0000000   0.0000000   0.0000000
 NQMom=    0.0000000   0.0000000   0.0000000   0.0000000   0.0000000
 NMagM=    0.0000000   2.7928460   2.7928460   2.7928460   2.7928460
 AtZNuc=  16.0000000   1.0000000   1.0000000   1.0000000   1.0000000
 Leave Link  101 at Wed Aug  3 22:56:01 2016, MaxMem=    33554432 cpu:         0.2
 (Enter /home/proyectos/fulerenos/M3C-v2.0/M3C-deps_CCC/g09-AM64L-G09RevC.01/l103.exe)

 GradGradGradGradGradGradGradGradGradGradGradGradGradGradGradGradGradGrad
 Berny optimization.
 Initialization pass.
 Trust Radius=3.00D-01 FncErr=1.00D-07 GrdErr=1.00D-07
 Number of steps in this run=      2 maximum allowed number of steps=      2.
 GradGradGradGradGradGradGradGradGradGradGradGradGradGradGradGradGradGrad

 Leave Link  103 at Wed Aug  3 22:56:01 2016, MaxMem=    33554432 cpu:         0.1
 (Enter /home/proyectos/fulerenos/M3C-v2.0/M3C-deps_CCC/g09-AM64L-G09RevC.01/l202.exe)
                          Input orientation:                          
 ---------------------------------------------------------------------
 Center     Atomic      Atomic             Coordinates (Angstroms)
 Number     Number       Type             X           Y           Z
 ---------------------------------------------------------------------
      1         16           0        0.771011   -0.366058    0.187932
      2          1           0        0.832706   -0.854175   -1.110974
      3          1           0        1.604757   -1.118357    1.005329
      4          1           0        1.181327    0.960821    0.203881
      5          1           0       -0.534745   -0.452522    0.653493
 ---------------------------------------------------------------------
                    Distance matrix (angstroms):
                    1          2          3          4          5
     1  S    0.000000
     2  H    1.388964   0.000000
     3  H    1.388964   2.268169   0.000000
     4  H    1.388964   2.268169   2.268169   0.000000
     5  H    1.388964   2.268169   2.268169   2.268169   0.000000
 Stoichiometry    H4S(2+)
 Framework group  TD[O(S),4C3(H)]
 Deg. of freedom     1
 Full point group                 TD      NOp  24
 Largest Abelian subgroup         D2      NOp   4
 Largest concise Abelian subgroup D2      NOp   4
                         Standard orientation:                         
 ---------------------------------------------------------------------
 Center     Atomic      Atomic             Coordinates (Angstroms)
 Number     Number       Type             X           Y           Z
 ---------------------------------------------------------------------
      1         16           0        0.000000    0.000000    0.000000
      2          1           0        0.801919    0.801919    0.801919
      3          1           0       -0.801919   -0.801919    0.801919
      4          1           0       -0.801919    0.801919   -0.801919
      5          1           0        0.801919   -0.801919   -0.801919
 ---------------------------------------------------------------------
 Rotational constants (GHZ):     97.4722665     97.4722665     97.4722665
 Leave Link  202 at Wed Aug  3 22:56:01 2016, MaxMem=    33554432 cpu:         0.1
 (Enter /home/proyectos/fulerenos/M3C-v2.0/M3C-deps_CCC/g09-AM64L-G09RevC.01/l301.exe)
 Standard basis: 6-311++G(3df,2p) (5D, 7F)
 Ernie: Thresh=  0.10000D-02 Tol=  0.10000D-05 Strict=F.
 There are    27 symmetry adapted cartesian basis functions of A   symmetry.
 There are    22 symmetry adapted cartesian basis functions of B1  symmetry.
 There are    22 symmetry adapted cartesian basis functions of B2  symmetry.
 There are    22 symmetry adapted cartesian basis functions of B3  symmetry.
 There are    24 symmetry adapted basis functions of A   symmetry.
 There are    21 symmetry adapted basis functions of B1  symmetry.
 There are    21 symmetry adapted basis functions of B2  symmetry.
 There are    21 symmetry adapted basis functions of B3  symmetry.
    87 basis functions,   120 primitive gaussians,    93 cartesian basis functions
     9 alpha electrons        9 beta electrons
       nuclear repulsion energy        25.7829944938 Hartrees.
 IExCor=  402 DFT=T Ex+Corr=B3LYP ExCW=0 ScaHFX=  0.200000
 ScaDFX=  0.800000  0.720000  1.000000  0.810000 ScalE2=  1.000000  1.000000
 IRadAn=      0 IRanWt=     -1 IRanGd=            0 ICorTp=0 IEmpDi=  4
 NAtoms=    5 NActive=    5 NUniq=    2 SFac= 4.00D+00 NAtFMM=   60 NAOKFM=F Big=F
 Integral buffers will be    131072 words long.
 Raffenetti 2 integral format.
 Two-electron integral symmetry is turned on.
 Leave Link  301 at Wed Aug  3 22:56:01 2016, MaxMem=    33554432 cpu:         0.2
 (Enter /home/proyectos/fulerenos/M3C-v2.0/M3C-deps_CCC/g09-AM64L-G09RevC.01/l302.exe)
 NPDir=0 NMtPBC=     1 NCelOv=     1 NCel=       1 NClECP=     1 NCelD=      1
         NCelK=      1 NCelE2=     1 NClLst=     1 CellRange=     0.0.
 One-electron integrals computed using PRISM.
 One-electron integral symmetry used in STVInt
 NBasis=    87 RedAO= T EigKep=  2.64D-03  NBF=    24    21    21    21
 NBsUse=    87 1.00D-06 EigRej= -1.00D+00 NBFU=    24    21    21    21
 Precomputing XC quadrature grid using
 IXCGrd= 4 IRadAn=           0 IRanWt=          -1 IRanGd=           0 AccXCQ= 0.00D+00.
 Generated NRdTot=       0 NPtTot=           0 NUsed=           0 NTot=          32
 NSgBfM=    93    93    93    93    93 MxSgAt=     5 MxSgA2=     5.
 Leave Link  302 at Wed Aug  3 22:56:01 2016, MaxMem=    33554432 cpu:         0.9
 (Enter /home/proyectos/fulerenos/M3C-v2.0/M3C-deps_CCC/g09-AM64L-G09RevC.01/l303.exe)
 DipDrv:  MaxL=1.
 Leave Link  303 at Wed Aug  3 22:56:01 2016, MaxMem=    33554432 cpu:         0.1
 (Enter /home/proyectos/fulerenos/M3C-v2.0/M3C-deps_CCC/g09-AM64L-G09RevC.01/l401.exe)
 ExpMin= 3.60D-02 ExpMax= 9.34D+04 ExpMxC= 3.17D+03 IAcc=3 IRadAn=         5 AccDes= 0.00D+00
 Harris functional with IExCor=  402 and IRadAn=       5 diagonalized for initial guess.
 HarFok:  IExCor=  402 AccDes= 0.00D+00 IRadAn=         5 IDoV= 1 UseB2=F ITyADJ=14
 ICtDFT=  3500011 ScaDFX=  1.000000  1.000000  1.000000  1.000000
 FoFCou: FMM=F IPFlag=           0 FMFlag=      100000 FMFlg1=           0
         NFxFlg=           0 DoJE=T BraDBF=F KetDBF=T FulRan=T
         wScrn=  0.000000 ICntrl=     500 IOpCl=  0 I1Cent=   200000004 NGrid=           0
         NMat0=    1 NMatS0=      1 NMatT0=    0 NMatD0=    1 NMtDS0=    0 NMtDT0=    0
 Petite list used in FoFCou.
 Harris En= -400.105204354457    
 JPrj=0 DoOrth=F DoCkMO=F.
 Initial guess orbital symmetries:
       Occupied  (A1) (A1) (T2) (T2) (T2) (A1) (T2) (T2) (T2)
       Virtual   (A1) (T2) (T2) (T2) (T2) (T2) (T2) (A1) (T2) (T2)
                 (T2) (E) (E) (A1) (T2) (T2) (T2) (T2) (T2) (T2)
                 (A1) (T2) (T2) (T2) (T1) (T1) (T1) (A1) (T2) (T2)
                 (T2) (E) (E) (T2) (T2) (T2) (E) (E) (A1) (T2)
                 (T2) (T2) (T2) (T2) (T2) (T1) (T1) (T1) (T2) (T2)
                 (T2) (A1) (T2) (T2) (T2) (A1) (T1) (T1) (T1) (T2)
                 (T2) (T2) (T2) (T2) (T2) (E) (E) (A1) (E) (E)
                 (T2) (T2) (T2) (A1) (T2) (T2) (T2) (A1)
 The electronic state of the initial guess is 1-A1.
 Leave Link  401 at Wed Aug  3 22:56:02 2016, MaxMem=    33554432 cpu:         1.2
 (Enter /home/proyectos/fulerenos/M3C-v2.0/M3C-deps_CCC/g09-AM64L-G09RevC.01/l502.exe)
 Closed shell SCF:
 Using DIIS extrapolation, IDIIS=  1040.
 Integral symmetry usage will be decided dynamically.
 Keep R1 ints in memory in symmetry-blocked form, NReq=9367693.
 IVT=       46943 IEndB=       46943 NGot=    33554432 MDV=    31663273
 LenX=    31663273 LenY=    31654183
 Requested convergence on RMS density matrix=1.00D-08 within 128 cycles.
 Requested convergence on MAX density matrix=1.00D-06.
 Requested convergence on             energy=1.00D-06.
 No special actions if energy rises.
 FoFCou: FMM=F IPFlag=           0 FMFlag=           0 FMFlg1=           0
         NFxFlg=           0 DoJE=F BraDBF=F KetDBF=F FulRan=T
         wScrn=  0.000000 ICntrl=     600 IOpCl=  0 I1Cent=           0 NGrid=           0
         NMat0=    1 NMatS0=   3828 NMatT0=    0 NMatD0=    1 NMtDS0=    0 NMtDT0=    0
 Petite list used in FoFCou.

 Cycle   1  Pass 1  IDiag  1:
 E= -399.599341864263    
 DIIS: error= 3.53D-02 at cycle   1 NSaved=   1.
 NSaved= 1 IEnMin= 1 EnMin= -399.599341864263     IErMin= 1 ErrMin= 3.53D-02
 ErrMax= 3.53D-02  0.00D+00 EMaxC= 1.00D-01 BMatC= 7.05D-02 BMatP= 7.05D-02
 IDIUse=3 WtCom= 6.47D-01 WtEn= 3.53D-01
 Coeff-Com:  0.100D+01
 Coeff-En:   0.100D+01
 Coeff:      0.100D+01
 Gap=     0.556 Goal=   None    Shift=    0.000
 GapD=    0.556 DampG=2.000 DampE=0.500 DampFc=1.0000 IDamp=-1.
 RMSDP=3.98D-03 MaxDP=1.82D-01              OVMax= 1.46D-01

 Cycle   2  Pass 1  IDiag  1:
 E= -399.623645315426     Delta-E=       -0.024303451164 Rises=F Damp=F
 DIIS: error= 2.83D-02 at cycle   2 NSaved=   2.
 NSaved= 2 IEnMin= 2 EnMin= -399.623645315426     IErMin= 2 ErrMin= 2.83D-02
 ErrMax= 2.83D-02  0.00D+00 EMaxC= 1.00D-01 BMatC= 5.59D-02 BMatP= 7.05D-02
 IDIUse=3 WtCom= 7.17D-01 WtEn= 2.83D-01
 Coeff-Com:  0.469D+00 0.531D+00
 Coeff-En:   0.362D+00 0.638D+00
 Coeff:      0.439D+00 0.561D+00
 Gap=     0.518 Goal=   None    Shift=    0.000
 RMSDP=2.11D-03 MaxDP=1.04D-01 DE=-2.43D-02 OVMax= 6.39D-02

 Cycle   3  Pass 1  IDiag  1:
 E= -399.664302237429     Delta-E=       -0.040656922003 Rises=F Damp=F
 DIIS: error= 2.49D-03 at cycle   3 NSaved=   3.
 NSaved= 3 IEnMin= 3 EnMin= -399.664302237429     IErMin= 3 ErrMin= 2.49D-03
 ErrMax= 2.49D-03  0.00D+00 EMaxC= 1.00D-01 BMatC= 3.25D-04 BMatP= 5.59D-02
 IDIUse=3 WtCom= 9.75D-01 WtEn= 2.49D-02
 Coeff-Com:  0.907D-02 0.717D-01 0.919D+00
 Coeff-En:   0.000D+00 0.000D+00 0.100D+01
 Coeff:      0.884D-02 0.699D-01 0.921D+00
 Gap=     0.519 Goal=   None    Shift=    0.000
 RMSDP=6.00D-05 MaxDP=1.20D-03 DE=-4.07D-02 OVMax= 1.63D-03

 Cycle   4  Pass 1  IDiag  1:
 E= -399.664390866941     Delta-E=       -0.000088629512 Rises=F Damp=F
 DIIS: error= 4.06D-04 at cycle   4 NSaved=   4.
 NSaved= 4 IEnMin= 4 EnMin= -399.664390866941     IErMin= 4 ErrMin= 4.06D-04
 ErrMax= 4.06D-04  0.00D+00 EMaxC= 1.00D-01 BMatC= 9.17D-06 BMatP= 3.25D-04
 IDIUse=3 WtCom= 9.96D-01 WtEn= 4.06D-03
 Coeff-Com: -0.142D-02 0.181D-01 0.172D+00 0.811D+00
 Coeff-En:   0.000D+00 0.000D+00 0.000D+00 0.100D+01
 Coeff:     -0.141D-02 0.181D-01 0.171D+00 0.812D+00
 Gap=     0.519 Goal=   None    Shift=    0.000
 RMSDP=3.28D-05 MaxDP=1.58D-03 DE=-8.86D-05 OVMax= 1.04D-03

 Cycle   5  Pass 1  IDiag  1:
 E= -399.664400946604     Delta-E=       -0.000010079663 Rises=F Damp=F
 DIIS: error= 8.70D-06 at cycle   5 NSaved=   5.
 NSaved= 5 IEnMin= 5 EnMin= -399.664400946604     IErMin= 5 ErrMin= 8.70D-06
 ErrMax= 8.70D-06  0.00D+00 EMaxC= 1.00D-01 BMatC= 8.63D-09 BMatP= 9.17D-06
 IDIUse=1 WtCom= 1.00D+00 WtEn= 0.00D+00
 Coeff-Com: -0.762D-04-0.104D-03 0.249D-02 0.162D-01 0.981D+00
 Coeff:     -0.762D-04-0.104D-03 0.249D-02 0.162D-01 0.981D+00
 Gap=     0.519 Goal=   None    Shift=    0.000
 RMSDP=9.95D-07 MaxDP=3.67D-05 DE=-1.01D-05 OVMax= 3.47D-05

 Cycle   6  Pass 1  IDiag  1:
 E= -399.664400955039     Delta-E=       -0.000000008435 Rises=F Damp=F
 DIIS: error= 6.93D-07 at cycle   6 NSaved=   6.
 NSaved= 6 IEnMin= 6 EnMin= -399.664400955039     IErMin= 6 ErrMin= 6.93D-07
 ErrMax= 6.93D-07  0.00D+00 EMaxC= 1.00D-01 BMatC= 4.54D-11 BMatP= 8.63D-09
 IDIUse=1 WtCom= 1.00D+00 WtEn= 0.00D+00
 Coeff-Com:  0.424D-05-0.157D-04-0.387D-03-0.238D-02-0.108D-01 0.101D+01
 Coeff:      0.424D-05-0.157D-04-0.387D-03-0.238D-02-0.108D-01 0.101D+01
 Gap=     0.519 Goal=   None    Shift=    0.000
 RMSDP=6.22D-08 MaxDP=2.74D-06 DE=-8.43D-09 OVMax= 1.86D-06

 Cycle   7  Pass 1  IDiag  1:
 E= -399.664400955083     Delta-E=       -0.000000000044 Rises=F Damp=F
 DIIS: error= 2.82D-08 at cycle   7 NSaved=   7.
 NSaved= 7 IEnMin= 7 EnMin= -399.664400955083     IErMin= 7 ErrMin= 2.82D-08
 ErrMax= 2.82D-08  0.00D+00 EMaxC= 1.00D-01 BMatC= 7.48D-14 BMatP= 4.54D-11
 IDIUse=1 WtCom= 1.00D+00 WtEn= 0.00D+00
 Coeff-Com:  0.812D-07-0.157D-06-0.157D-04 0.655D-04-0.908D-03-0.152D-01
 Coeff-Com:  0.102D+01
 Coeff:      0.812D-07-0.157D-06-0.157D-04 0.655D-04-0.908D-03-0.152D-01
 Coeff:      0.102D+01
 Gap=     0.519 Goal=   None    Shift=    0.000
 RMSDP=2.20D-09 MaxDP=6.12D-08 DE=-4.41D-11 OVMax= 1.03D-07

 SCF Done:  E(RB3LYP) =  -399.664400955     A.U. after    7 cycles
            NFock=  7  Conv=0.22D-08     -V/T= 2.0015
 KE= 3.990664270470D+02 PE=-9.893401299919D+02 EE= 1.648263074960D+02
 Leave Link  502 at Wed Aug  3 22:56:03 2016, MaxMem=    33554432 cpu:         4.0
 (Enter /home/proyectos/fulerenos/M3C-v2.0/M3C-deps_CCC/g09-AM64L-G09RevC.01/l801.exe)
 DoSCS=F DFT=T ScalE2(SS,OS)=  1.000000  1.000000
 Range of M.O.s used for correlation:     1    87
 NBasis=    87 NAE=     9 NBE=     9 NFC=     0 NFV=     0
 NROrb=     87 NOA=     9 NOB=     9 NVA=    78 NVB=    78

 **** Warning!!: The largest alpha MO coefficient is  0.12089843D+02

 Leave Link  801 at Wed Aug  3 22:56:03 2016, MaxMem=    33554432 cpu:         0.2
 (Enter /home/proyectos/fulerenos/M3C-v2.0/M3C-deps_CCC/g09-AM64L-G09RevC.01/l1101.exe)
 Using compressed storage, NAtomX=     5.
 Will process      6 centers per pass.
 Leave Link 1101 at Wed Aug  3 22:56:03 2016, MaxMem=    33554432 cpu:         0.9
 (Enter /home/proyectos/fulerenos/M3C-v2.0/M3C-deps_CCC/g09-AM64L-G09RevC.01/l1102.exe)
 Symmetrizing basis deriv contribution to polar:
 IMax=3 JMax=2 DiffMx= 0.00D+00
 Leave Link 1102 at Wed Aug  3 22:56:03 2016, MaxMem=    33554432 cpu:         0.2
 (Enter /home/proyectos/fulerenos/M3C-v2.0/M3C-deps_CCC/g09-AM64L-G09RevC.01/l1110.exe)
 Forming Gx(P) for the SCF density, NAtomX=     5.
 Integral derivatives from FoFJK, PRISM(SPDF).
 Do as many integral derivatives as possible in FoFJK.
 G2DrvN: MDV=      33554288.
 G2DrvN: will do     6 centers at a time, making    1 passes.
 Calling FoFCou, ICntrl=  3107 FMM=F I1Cent=   0 AccDes= 0.00D+00.
 FoFJK:  IHMeth= 1 ICntrl=    3107 DoSepK=F KAlg= 0 I1Cent=   0 FoldK=F
 IRaf=         0 NMat=   1 IRICut=       1 DoRegI=T DoRafI=F ISym2E= 1.
 FoFCou: FMM=F IPFlag=           0 FMFlag=      100000 FMFlg1=           0
         NFxFlg=           0 DoJE=F BraDBF=F KetDBF=F FulRan=T
         wScrn=  0.000000 ICntrl=    3107 IOpCl=  0 I1Cent=           0 NGrid=           0
         NMat0=    1 NMatS0=      1 NMatT0=    0 NMatD0=    1 NMtDS0=    0 NMtDT0=    0
 Petite list used in FoFCou.
 End of G2Drv F.D. properties file   721 does not exist.
 End of G2Drv F.D. properties file   722 does not exist.
 End of G2Drv F.D. properties file   788 does not exist.
 Leave Link 1110 at Wed Aug  3 22:56:05 2016, MaxMem=    33554432 cpu:         6.6
 (Enter /home/proyectos/fulerenos/M3C-v2.0/M3C-deps_CCC/g09-AM64L-G09RevC.01/l1002.exe)
 Minotr:  Closed shell wavefunction.
          IDoAtm=11111
          Direct CPHF calculation.
          Differentiating once with respect to electric field.
                with respect to dipole field.
          Differentiating once with respect to nuclear coordinates.
          Using symmetry in CPHF.
          Requested convergence is 1.0D-08 RMS, and 1.0D-07 maximum.
          Secondary convergence is 1.0D-12 RMS, and 1.0D-12 maximum.
          NewPWx=T KeepS1=F KeepF1=F KeepIn=T MapXYZ=F SortEE=F KeepMc=T.
          MDV=      33554291 using IRadAn=       2.
 Generate precomputed XC quadrature information.
 Keep R1 ints in memory in symmetry-blocked form, NReq=9339063.
 FoFCou: FMM=F IPFlag=           0 FMFlag=           0 FMFlg1=           0
         NFxFlg=           0 DoJE=F BraDBF=F KetDBF=F FulRan=T
         wScrn=  0.000000 ICntrl=     600 IOpCl=  0 I1Cent=           0 NGrid=           0
         NMat0=    1 NMatS0=   3828 NMatT0=    0 NMatD0=    1 NMtDS0=    0 NMtDT0=    0
 Petite list used in FoFCou.
          Solving linear equations simultaneously, MaxMat=       0.
          There are     9 degrees of freedom in the 1st order CPHF.  IDoFFX=4 NUNeed=     9.
      9 vectors produced by pass  0 Test12= 7.80D-15 1.11D-08 XBig12= 1.02D+01 1.79D+00.
 AX will form     9 AO Fock derivatives at one time.
      9 vectors produced by pass  1 Test12= 7.80D-15 1.11D-08 XBig12= 4.18D-01 2.90D-01.
      9 vectors produced by pass  2 Test12= 7.80D-15 1.11D-08 XBig12= 3.62D-03 1.87D-02.
      9 vectors produced by pass  3 Test12= 7.80D-15 1.11D-08 XBig12= 4.21D-06 5.13D-04.
      9 vectors produced by pass  4 Test12= 7.80D-15 1.11D-08 XBig12= 5.97D-09 2.00D-05.
      4 vectors produced by pass  5 Test12= 7.80D-15 1.11D-08 XBig12= 1.02D-11 1.12D-06.
      3 vectors produced by pass  6 Test12= 7.80D-15 1.11D-08 XBig12= 3.77D-15 2.22D-08.
 InvSVY:  IOpt=1 It=  1 EMax= 7.78D-17
 Solved reduced A of dimension    52 with     9 vectors.
 FullF1:  Do perturbations    1 to     9.
 Isotropic polarizability for W=    0.000000       15.73 Bohr**3.
 End of Minotr F.D. properties file   721 does not exist.
 End of Minotr F.D. properties file   722 does not exist.
 End of Minotr F.D. properties file   788 does not exist.
 Leave Link 1002 at Wed Aug  3 22:56:09 2016, MaxMem=    33554432 cpu:        14.1
 (Enter /home/proyectos/fulerenos/M3C-v2.0/M3C-deps_CCC/g09-AM64L-G09RevC.01/l601.exe)
 Copying SCF densities to generalized density rwf, IOpCl= 0 IROHF=0.

 **********************************************************************

            Population analysis using the SCF density.

 **********************************************************************

 Orbital symmetries:
       Occupied  (A1) (A1) (T2) (T2) (T2) (A1) (T2) (T2) (T2)
       Virtual   (T2) (T2) (T2) (A1) (E) (E) (T2) (T2) (T2) (A1)
                 (T2) (T2) (T2) (A1) (T2) (T2) (T2) (T2) (T2) (T2)
                 (A1) (T2) (T2) (T2) (T1) (T1) (T1) (A1) (T2) (T2)
                 (T2) (E) (E) (T2) (T2) (T2) (E) (E) (A1) (T2)
                 (T2) (T2) (T2) (T2) (T2) (T1) (T1) (T1) (T2) (T2)
                 (T2) (A1) (T2) (T2) (T2) (A1) (T1) (T1) (T1) (T2)
                 (T2) (T2) (T2) (T2) (T2) (E) (E) (A1) (E) (E)
                 (T2) (T2) (T2) (A1) (T2) (T2) (T2) (A1)
 The electronic state is 1-A1.
 Alpha  occ. eigenvalues --  -89.56816  -8.65063  -6.61065  -6.61065  -6.61065
 Alpha  occ. eigenvalues --   -1.42579  -1.07664  -1.07664  -1.07664
 Alpha virt. eigenvalues --   -0.55729  -0.55729  -0.55729  -0.53223  -0.39411
 Alpha virt. eigenvalues --   -0.39411  -0.33308  -0.33308  -0.33308  -0.26982
 Alpha virt. eigenvalues --   -0.19261  -0.19261  -0.19261  -0.17119  -0.12600
 Alpha virt. eigenvalues --   -0.12600  -0.12600  -0.02959  -0.02959  -0.02959
 Alpha virt. eigenvalues --    0.03263   0.06680   0.06680   0.06680   0.12730
 Alpha virt. eigenvalues --    0.12730   0.12730   0.18360   0.30727   0.30727
 Alpha virt. eigenvalues --    0.30727   0.31571   0.31571   0.46557   0.46557
 Alpha virt. eigenvalues --    0.46557   0.64229   0.64229   0.74049   0.89455
 Alpha virt. eigenvalues --    0.89455   0.89455   1.13976   1.13976   1.13976
 Alpha virt. eigenvalues --    1.25379   1.25379   1.25379   1.51794   1.51794
 Alpha virt. eigenvalues --    1.51794   1.61322   2.05705   2.05705   2.05705
 Alpha virt. eigenvalues --    2.25277   3.24907   3.24907   3.24907   3.28790
 Alpha virt. eigenvalues --    3.28790   3.28790   3.35431   3.35431   3.35431
 Alpha virt. eigenvalues --    3.36595   3.36595   3.66164   3.95601   3.95601
 Alpha virt. eigenvalues --    4.74398   4.74398   4.74398   7.45065  16.74863
 Alpha virt. eigenvalues --   16.74863  16.74863 188.55213
          Condensed to atoms (all electrons):
               1          2          3          4          5
     1  S   14.134119   0.331957   0.331957   0.331957   0.331957
     2  H    0.331957   0.307266  -0.001570  -0.001570  -0.001570
     3  H    0.331957  -0.001570   0.307266  -0.001570  -0.001570
     4  H    0.331957  -0.001570  -0.001570   0.307266  -0.001570
     5  H    0.331957  -0.001570  -0.001570  -0.001570   0.307266
 Mulliken charges:
               1
     1  S    0.538052
     2  H    0.365487
     3  H    0.365487
     4  H    0.365487
     5  H    0.365487
 Sum of Mulliken charges =   2.00000
 Mulliken charges with hydrogens summed into heavy atoms:
               1
     1  S    2.000000
 APT charges:
               1
     1  S    0.614228
     2  H    0.346443
     3  H    0.346443
     4  H    0.346443
     5  H    0.346443
 Sum of APT charges =   2.00000
 APT charges with hydrogens summed into heavy atoms:
               1
     1  S    2.000000
 Electronic spatial extent (au):  <R**2>=             41.4103
 Charge=              2.0000 electrons
 Dipole moment (field-independent basis, Debye):
    X=              0.0000    Y=             -0.0000    Z=             -0.0000  Tot=              0.0000
 Quadrupole moment (field-independent basis, Debye-Ang):
   XX=             -6.2108   YY=             -6.2108   ZZ=             -6.2108
   XY=             -0.0000   XZ=             -0.0000   YZ=             -0.0000
 Traceless Quadrupole moment (field-independent basis, Debye-Ang):
   XX=              0.0000   YY=             -0.0000   ZZ=              0.0000
   XY=             -0.0000   XZ=             -0.0000   YZ=             -0.0000
 Octapole moment (field-independent basis, Debye-Ang**2):
  XXX=              0.0000  YYY=             -0.0000  ZZZ=             -0.0000  XYY=             -0.0000
  XXY=             -0.0000  XXZ=             -0.0000  XZZ=             -0.0000  YZZ=             -0.0000
  YYZ=             -0.0000  XYZ=              4.4787
 Hexadecapole moment (field-independent basis, Debye-Ang**3):
 XXXX=            -12.5274 YYYY=            -12.5274 ZZZZ=            -12.5274 XXXY=              0.0000
 XXXZ=             -0.0000 YYYX=             -0.0000 YYYZ=             -0.0000 ZZZX=             -0.0000
 ZZZY=             -0.0000 XXYY=             -1.1947 XXZZ=             -1.1947 YYZZ=             -1.1947
 XXYZ=              0.0000 YYXZ=             -0.0000 ZZXY=             -0.0000
 N-N= 2.578299449382D+01 E-N=-9.893401286109D+02  KE= 3.990664270470D+02
 Symmetry A    KE= 2.837749000949D+02
 Symmetry B1   KE= 3.843050898405D+01
 Symmetry B2   KE= 3.843050898405D+01
 Symmetry B3   KE= 3.843050898405D+01
  Exact polarizability:  15.734  -0.000  15.734  -0.000   0.000  15.734
 Approx polarizability:  23.006   0.000  23.006  -0.000  -0.000  23.006
 No NMR shielding tensors so no spin-rotation constants.
 Leave Link  601 at Wed Aug  3 22:56:09 2016, MaxMem=    33554432 cpu:         0.8
 (Enter /home/proyectos/fulerenos/M3C-v2.0/M3C-deps_CCC/g09-AM64L-G09RevC.01/l701.exe)
 Compute integral second derivatives.
 ... and contract with generalized density number  0.
 Leave Link  701 at Wed Aug  3 22:56:09 2016, MaxMem=    33554432 cpu:         1.6
 (Enter /home/proyectos/fulerenos/M3C-v2.0/M3C-deps_CCC/g09-AM64L-G09RevC.01/l702.exe)
 L702 exits ... SP integral derivatives will be done elsewhere.
 Leave Link  702 at Wed Aug  3 22:56:09 2016, MaxMem=    33554432 cpu:         0.1
 (Enter /home/proyectos/fulerenos/M3C-v2.0/M3C-deps_CCC/g09-AM64L-G09RevC.01/l703.exe)
 Compute integral second derivatives, UseDBF=F ICtDFT=           0.
 Integral derivatives from FoFJK, PRISM(SPDF).
 Calling FoFJK, ICntrl=    100127 FMM=F ISym2X=1 I1Cent= 0 IOpClX= 0 NMat=1 NMatS=1 NMatT=0.
 FoFJK:  IHMeth= 1 ICntrl=  100127 DoSepK=F KAlg= 0 I1Cent=   0 FoldK=F
 IRaf=         0 NMat=   1 IRICut=       1 DoRegI=T DoRafI=F ISym2E= 1.
 FoFCou: FMM=F IPFlag=           0 FMFlag=      100000 FMFlg1=         800
         NFxFlg=           0 DoJE=F BraDBF=F KetDBF=F FulRan=T
         wScrn=  0.000000 ICntrl=  100127 IOpCl=  0 I1Cent=           0 NGrid=           0
         NMat0=    1 NMatS0=      1 NMatT0=    0 NMatD0=    1 NMtDS0=    0 NMtDT0=    0
 Petite list used in FoFCou.
 Leave Link  703 at Wed Aug  3 22:56:12 2016, MaxMem=    33554432 cpu:        11.1
 (Enter /home/proyectos/fulerenos/M3C-v2.0/M3C-deps_CCC/g09-AM64L-G09RevC.01/l716.exe)
 Dipole        = 5.82650247D-16-1.20823490D-15 2.81025203D-16
 Polarizability= 1.57335883D+01-9.91283967D-11 1.57335883D+01
                -1.77062817D-09 2.82751215D-10 1.57335883D+01
 Full mass-weighted force constant matrix:
 Low frequencies ---    0.0036    0.0048    0.0048   40.8058   40.8058   40.8058
 Low frequencies ---  956.0057  956.0057  956.0057
 Diagonal vibrational polarizability:
        3.6256587       3.6256587       3.6256587
 Harmonic frequencies (cm**-1), IR intensities (KM/Mole), Raman scattering
 activities (A**4/AMU), depolarization ratios for plane and unpolarized
 incident light, reduced masses (AMU), force constants (mDyne/A),
 and normal coordinates:
                      1                      2                      3
                     T2                     T2                     T2
 Frequencies --    956.0057               956.0057               956.0057
 Red. masses --      1.0785                 1.0785                 1.0785
 Frc consts  --      0.5808                 0.5808                 0.5808
 IR Inten    --     30.6139                30.6139                30.6139
  Atom  AN      X      Y      Z        X      Y      Z        X      Y      Z
     1  16    -0.00  -0.05  -0.01    -0.00   0.01  -0.05    -0.05   0.00   0.00
     2   1    -0.25   0.34  -0.18    -0.19  -0.28   0.40     0.39  -0.23  -0.23
     3   1    -0.19   0.40   0.28     0.26   0.18   0.35     0.38  -0.24   0.22
     4   1     0.21   0.41   0.27    -0.25   0.18   0.34     0.38   0.22  -0.24
     5   1     0.26   0.35  -0.18     0.21  -0.27   0.41     0.37   0.23   0.23
                      4                      5                      6
                      E                      E                     T2
 Frequencies --   1164.6821              1164.6821              2350.3767
 Red. masses --      1.0078                 1.0078                 1.0530
 Frc consts  --      0.8055                 0.8055                 3.4272
 IR Inten    --      0.0000                 0.0000               559.2238
  Atom  AN      X      Y      Z        X      Y      Z        X      Y      Z
     1  16    -0.00   0.00   0.00    -0.00  -0.00   0.00     0.00   0.00  -0.04
     2   1    -0.35   0.35  -0.00    -0.21  -0.20   0.41     0.27   0.27   0.29
     3   1     0.35  -0.35  -0.00     0.21   0.20   0.41    -0.29  -0.29   0.31
     4   1     0.35   0.35   0.00     0.21  -0.20  -0.41     0.27  -0.28   0.30
     5   1    -0.35  -0.35   0.00    -0.21   0.20  -0.41    -0.29   0.29   0.31
                      7                      8                      9
                     T2                     T2                     A1
 Frequencies --   2350.3767              2350.3767              2353.3492
 Red. masses --      1.0530                 1.0530                 1.0078
 Frc consts  --      3.4272                 3.4272                 3.2886
 IR Inten    --    559.2238               559.2238                 0.0000
  Atom  AN      X      Y      Z        X      Y      Z        X      Y      Z
     1  16    -0.04   0.00  -0.00    -0.00  -0.04  -0.00    -0.00  -0.00  -0.00
     2   1     0.31   0.28   0.28     0.29   0.31   0.29     0.29   0.29   0.29
     3   1     0.29   0.27  -0.27     0.28   0.30  -0.28    -0.29  -0.29   0.29
     4   1     0.32  -0.30   0.30    -0.27   0.29  -0.27    -0.29   0.29  -0.29
     5   1     0.30  -0.28  -0.28    -0.28   0.30   0.28     0.29  -0.29  -0.29

 -------------------
 - Thermochemistry -
 -------------------
 Temperature   298.150 Kelvin.  Pressure   1.00000 Atm.
 Atom     1 has atomic number 16 and mass  31.97207
 Atom     2 has atomic number  1 and mass   1.00783
 Atom     3 has atomic number  1 and mass   1.00783
 Atom     4 has atomic number  1 and mass   1.00783
 Atom     5 has atomic number  1 and mass   1.00783
 Molecular mass:    36.00337 amu.
 Principal axes and moments of inertia in atomic units:
                           1         2         3
     Eigenvalues --    18.51543  18.51543  18.51543
           X           -0.01672  -0.21485   0.97650
           Y           -0.23544   0.95003   0.20499
           Z            0.97175   0.22648   0.06647
 This molecule is a spherical top.
 Rotational symmetry number 12.
 Rotational temperatures (Kelvin)      4.67793     4.67793     4.67793
 Rotational constants (GHZ):          97.47227    97.47227    97.47227
 Zero-point vibrational energy      87338.5 (Joules/Mol)
                                   20.87441 (Kcal/Mol)
 Vibrational temperatures:   1375.48  1375.48  1375.48  1675.72  1675.72
          (Kelvin)           3381.66  3381.66  3381.66  3385.94
 
 Zero-point correction=                           0.033265 (Hartree/Particle)
 Thermal correction to Energy=                    0.036268
 Thermal correction to Enthalpy=                  0.037212
 Thermal correction to Gibbs Free Energy=         0.014088
 Sum of electronic and zero-point Energies=           -399.631135
 Sum of electronic and thermal Energies=              -399.628133
 Sum of electronic and thermal Enthalpies=            -399.627189
 Sum of electronic and thermal Free Energies=         -399.650313
 
                     E (Thermal)             CV                S
                      KCal/Mol        Cal/Mol-Kelvin    Cal/Mol-Kelvin
 Total                   22.759              7.716             48.669
 Electronic               0.000              0.000              0.000
 Translational            0.889              2.981             36.673
 Rotational               0.889              2.981             11.565
 Vibrational             20.981              1.754              0.432
                       Q            Log10(Q)             Ln(Q)
 Total Bot       0.331182D-06         -6.479933        -14.920597
 Total V=0       0.662363D+09          8.821096         20.311325
 Vib (Bot)       0.518957D-15        -15.284869        -35.194711
 Vib (V=0)       0.103791D+01          0.016160          0.037210
 Electronic      0.100000D+01          0.000000          0.000000
 Translational   0.849122D+07          6.928970         15.954543
 Rotational      0.751564D+02          1.875966          4.319571
 
                                                              b3lyp opt
                                                             IR Spectrum
 
     22                                                               1                                                              
     33                                                               1          9                                                   
     55                                                               6          5                                                   
     30                                                               5          6                                                   
 
      X                                                                          X                                                   
      X                                                                                                                              
      X                                                                                                                              
      X                                                                                                                              
      X                                                                                                                              
      X                                                                                                                              
      X                                                                                                                              
      X                                                                                                                              
      X                                                                                                                              
      X                                                                                                                              
      X                                                                                                                              
      X                                                                                                                              
      X                                                                                                                              
      X                                                                                                                              
      X                                                                                                                              
      X                                                                                                                              
      X                                                                                                                              
      X                                                                                                                              
      X                                                                                                                              
      X                                                                                                                              
 
 ***** Axes restored to original set *****
 -------------------------------------------------------------------
 Center     Atomic                   Forces (Hartrees/Bohr)
 Number     Number              X              Y              Z
 -------------------------------------------------------------------
      1       16          -0.000000000   -0.000000000    0.000000000
      2        1          -0.000000798    0.000006310    0.000016791
      3        1          -0.000010778    0.000009725   -0.000010567
      4        1          -0.000005304   -0.000017153   -0.000000206
      5        1           0.000016880    0.000001118   -0.000006018
 -------------------------------------------------------------------
 Cartesian Forces:  Max     0.000017153 RMS     0.000009272
 Z-matrix is all fixed cartesians, so copy forces.
 Force constants in Cartesian coordinates: 
                1             2             3             4             5 
      1  0.370799D+00
      2  0.000000D+00  0.370799D+00
      3  0.000000D+00  0.000000D+00  0.370799D+00
      4 -0.357507D-01  0.268272D-02  0.713887D-02  0.254867D-01
      5  0.268272D-02 -0.566368D-01 -0.564814D-01 -0.278969D-02  0.472056D-01
      6  0.713887D-02 -0.564814D-01 -0.185712D+00 -0.742353D-02  0.587335D-01
      7 -0.973373D-01  0.558763D-01 -0.607114D-01  0.333669D-02 -0.501639D-02
      8  0.558763D-01 -0.858294D-01  0.547805D-01 -0.745337D-02  0.806023D-02
      9 -0.607114D-01  0.547805D-01 -0.949324D-01 -0.777186D-02  0.859732D-02
     10 -0.504098D-01 -0.485012D-01 -0.582975D-03  0.413413D-03  0.267851D-02
     11 -0.485012D-01 -0.192255D+00 -0.188523D-02  0.771507D-03  0.372813D-03
     12 -0.582975D-03 -0.188523D-02 -0.354343D-01 -0.570958D-02 -0.141336D-01
     13 -0.187301D+00 -0.100578D-01  0.541555D-01  0.651394D-02  0.244485D-02
     14 -0.100578D-01 -0.360776D-01  0.358605D-02  0.678884D-02  0.998179D-03
     15  0.541555D-01  0.358605D-02 -0.547205D-01  0.137661D-01  0.328407D-02
                6             7             8             9            10 
      6  0.181427D+00
      7 -0.111301D-03  0.895290D-01
      8 -0.704085D-03 -0.581043D-01  0.775622D-01
      9 -0.340369D-02  0.631322D-01 -0.569649D-01  0.870282D-01
     10 -0.210064D-02  0.801531D-02  0.969278D-02  0.459875D-02  0.407303D-01
     11 -0.253709D-02  0.129063D-03 -0.269760D-02  0.539808D-03  0.504352D-01
     12  0.720701D-02  0.677578D-02  0.795163D-02  0.267551D-02  0.606221D-03
     13  0.249660D-02 -0.354370D-02 -0.113664D-04  0.752271D-03  0.125080D-02
     14  0.989006D-03  0.711537D-02  0.290455D-02 -0.695277D-02 -0.143053D-01
     15  0.481107D-03 -0.908532D-02 -0.506319D-02  0.863238D-02 -0.252136D-02
               11            12            13            14            15 
     11  0.188232D+00
     12  0.196040D-02  0.251576D-01
     13 -0.283454D-02 -0.108945D-02  0.183080D+00
     14  0.634829D-02  0.610676D-02  0.104588D-01  0.258266D-01
     15  0.192211D-02  0.394147D-03 -0.563149D-01 -0.372904D-02  0.452129D-01
 Leave Link  716 at Wed Aug  3 22:56:12 2016, MaxMem=    33554432 cpu:         0.2
 (Enter /home/proyectos/fulerenos/M3C-v2.0/M3C-deps_CCC/g09-AM64L-G09RevC.01/l103.exe)

 GradGradGradGradGradGradGradGradGradGradGradGradGradGradGradGradGradGrad
 Berny optimization.
 Search for a local minimum.
 Step number   1 out of a maximum of    2
 All quantities printed in internal units (Hartrees-Bohrs-Radians)
 Second derivative matrix not updated -- analytic derivatives used.
 The second derivative matrix:
                          X1        Y1        Z1        X2        Y2
           X1           0.37080
           Y1          -0.00000   0.37080
           Z1           0.00000   0.00000   0.37080
           X2          -0.03575   0.00268   0.00714   0.02549
           Y2           0.00268  -0.05664  -0.05648  -0.00279   0.04721
           Z2           0.00714  -0.05648  -0.18571  -0.00742   0.05873
           X3          -0.09734   0.05588  -0.06071   0.00334  -0.00502
           Y3           0.05588  -0.08583   0.05478  -0.00745   0.00806
           Z3          -0.06071   0.05478  -0.09493  -0.00777   0.00860
           X4          -0.05041  -0.04850  -0.00058   0.00041   0.00268
           Y4          -0.04850  -0.19226  -0.00189   0.00077   0.00037
           Z4          -0.00058  -0.00189  -0.03543  -0.00571  -0.01413
           X5          -0.18730  -0.01006   0.05416   0.00651   0.00244
           Y5          -0.01006  -0.03608   0.00359   0.00679   0.00100
           Z5           0.05416   0.00359  -0.05472   0.01377   0.00328
                          Z2        X3        Y3        Z3        X4
           Z2           0.18143
           X3          -0.00011   0.08953
           Y3          -0.00070  -0.05810   0.07756
           Z3          -0.00340   0.06313  -0.05696   0.08703
           X4          -0.00210   0.00802   0.00969   0.00460   0.04073
           Y4          -0.00254   0.00013  -0.00270   0.00054   0.05044
           Z4           0.00721   0.00678   0.00795   0.00268   0.00061
           X5           0.00250  -0.00354  -0.00001   0.00075   0.00125
           Y5           0.00099   0.00712   0.00290  -0.00695  -0.01431
           Z5           0.00048  -0.00909  -0.00506   0.00863  -0.00252
                          Y4        Z4        X5        Y5        Z5
           Y4           0.18823
           Z4           0.00196   0.02516
           X5          -0.00283  -0.00109   0.18308
           Y5           0.00635   0.00611   0.01046   0.02583
           Z5           0.00192   0.00039  -0.05631  -0.00373   0.04521
 ITU=  0
     Eigenvalues ---    0.05174   0.05174   0.05444   0.05444   0.05444
     Eigenvalues ---    0.21123   0.38336   0.38336   0.38336
 Angle between quadratic step and forces=   0.00 degrees.
 ClnCor:  largest displacement from symmetrization is 4.75D-13 for atom     3.
 Linear search not attempted -- first point.
 ClnCor:  largest displacement from symmetrization is 6.66D-16 for atom     3.
 B after Tr=     0.000000    0.000000   -0.000000
         Rot=    1.000000   -0.000000    0.000000   -0.000000 Ang=   0.00 deg.
 Variable       Old X    -DE/DX   Delta X   Delta X   Delta X     New X
                                 (Linear)    (Quad)   (Total)
    X1        1.45700  -0.00000   0.00000   0.00000   0.00000   1.45700
    Y1       -0.69175  -0.00000   0.00000  -0.00000   0.00000  -0.69175
    Z1        0.35514   0.00000   0.00000  -0.00000   0.00000   0.35514
    X2        1.57359  -0.00000   0.00000  -0.00000  -0.00000   1.57358
    Y2       -1.61416   0.00001   0.00000   0.00003   0.00003  -1.61413
    Z2       -2.09944   0.00002   0.00000   0.00008   0.00008  -2.09936
    X3        3.03255  -0.00001   0.00000  -0.00005  -0.00005   3.03250
    Y3       -2.11339   0.00001   0.00000   0.00005   0.00005  -2.11334
    Z3        1.89980  -0.00001   0.00000  -0.00005  -0.00005   1.89975
    X4        2.23238  -0.00001   0.00000  -0.00003  -0.00003   2.23236
    Y4        1.81569  -0.00002   0.00000  -0.00008  -0.00008   1.81561
    Z4        0.38528  -0.00000   0.00000  -0.00000  -0.00000   0.38528
    X5       -1.01052   0.00002   0.00000   0.00008   0.00008  -1.01044
    Y5       -0.85514   0.00000   0.00000   0.00001   0.00001  -0.85514
    Z5        1.23492  -0.00001   0.00000  -0.00003  -0.00003   1.23490
         Item               Value     Threshold  Converged?
 Maximum Force            0.000017     0.000450     YES
 RMS     Force            0.000009     0.000300     YES
 Maximum Displacement     0.000081     0.001800     YES
 RMS     Displacement     0.000044     0.001200     YES
 Predicted change in Energy=-3.052683D-09
 Optimization completed.
    -- Stationary point found.
 GradGradGradGradGradGradGradGradGradGradGradGradGradGradGradGradGradGrad

 Leave Link  103 at Wed Aug  3 22:56:12 2016, MaxMem=    33554432 cpu:         0.1
 (Enter /home/proyectos/fulerenos/M3C-v2.0/M3C-deps_CCC/g09-AM64L-G09RevC.01/l9999.exe)
 1\1\GINC-DEPAZ30\Freq\RB3LYP\6-311++G(3df,2p)\H4S1(2+)\NAGUIRRE\03-Aug
 -2016\0\\#p b3lyp/6-311++G(3df,2p) freq\\b3lyp opt\\2,1\S,0.7710113331
 ,-0.366058278,0.1879323059\H,0.8327060629,-0.8541752098,-1.1109740968\
 H,1.6047573499,-1.1183567115,1.0053287019\H,1.181326673,0.9608212112,0
 .2038811247\H,-0.5347447534,-0.4525224018,0.6534934938\\Version=EM64L-
 G09RevE.01\State=1-A1\HF=-399.664401\RMSD=2.205e-09\RMSF=9.272e-06\Zer
 oPoint=0.0332655\Thermal=0.0362681\Dipole=0.,0.,0.\DipoleDeriv=0.61422
 85,0.,0.,0.,0.6142285,0.,0.,0.,0.6142285,0.1779771,-0.007936,-0.021118
 1,-0.007936,0.239762,0.1670823,-0.0211181,0.1670823,0.6215895,0.360161
 8,-0.1652923,0.1795954,-0.1652923,0.3261192,-0.162051,0.1795954,-0.162
 051,0.3530477,0.2213415,0.1434756,0.0017245,0.1434756,0.640946,0.00557
 68,0.0017245,0.0055768,0.1770411,0.6262911,0.0297527,-0.1602019,0.0297
 527,0.1789442,-0.0106082,-0.1602019,-0.0106082,0.2340933\Polar=15.7335
 883,0.,15.7335883,0.,0.,15.7335883\PG=TD [O(S1),4C3(H1)]\NImag=0\\0.37
 079894,0.,0.37079894,0.,0.,0.37079894,-0.03575070,0.00268272,0.0071388
 7,0.02548665,0.00268272,-0.05663680,-0.05648137,-0.00278969,0.04720557
 ,0.00713887,-0.05648137,-0.18571170,-0.00742353,0.05873354,0.18142728,
 -0.09733734,0.05587627,-0.06071136,0.00333669,-0.00501639,-0.00011130,
 0.08952903,0.05587627,-0.08582941,0.05478055,-0.00745337,0.00806023,-0
 .00070408,-0.05810431,0.07756223,-0.06071136,0.05478055,-0.09493245,-0
 .00777186,0.00859732,-0.00340369,0.06313220,-0.05696490,0.08702825,-0.
 05040982,-0.04850123,-0.00058297,0.00041341,0.00267851,-0.00210064,0.0
 0801531,0.00969278,0.00459875,0.04073030,-0.04850123,-0.19225510,-0.00
 188523,0.00077151,0.00037281,-0.00253709,0.00012906,-0.00269760,0.0005
 3981,0.05043519,0.18823160,-0.00058297,-0.00188523,-0.03543428,-0.0057
 0958,-0.01413356,0.00720701,0.00677578,0.00795163,0.00267551,0.0006062
 2,0.00196040,0.02515762,-0.18730108,-0.01005777,0.05415547,0.00651394,
 0.00244485,0.00249660,-0.00354370,-0.00001137,0.00075227,0.00125080,-0
 .00283454,-0.00108945,0.18308003,-0.01005777,-0.03607763,0.00358605,0.
 00678884,0.00099818,0.00098901,0.00711537,0.00290455,-0.00695277,-0.01
 430526,0.00634829,0.00610676,0.01045881,0.02582661,0.05415547,0.003586
 05,-0.05472050,0.01376610,0.00328407,0.00048111,-0.00908532,-0.0050631
 9,0.00863238,-0.00252136,0.00192211,0.00039415,-0.05631490,-0.00372904
 ,0.04521287\\0.,0.,0.,0.00000080,-0.00000631,-0.00001679,0.00001078,-0
 .00000973,0.00001057,0.00000530,0.00001715,0.00000021,-0.00001688,-0.0
 0000112,0.00000602\\\@


 ... FOR AFTERWARDS A MAN FINDS PLEASURE IN HIS PAINS,
 WHEN HE HAS SUFFERED LONG AND WANDERED FAR.

                                    -- HOMER
 Job cpu time:       0 days  0 hours  0 minutes 44.1 seconds.
 File lengths (MBytes):  RWF=      6 Int=      0 D2E=      0 Chk=      2 Scr=      1
 Normal termination of Gaussian 09 at Wed Aug  3 22:56:12 2016.
