 Entering Gaussian System, Link 0=/home/proyectos/fulerenos/M3C-v2.0/M3C-deps_CCC/g09-AM64L-G09RevC.01/g09
 Initial command:
 /home/proyectos/fulerenos/M3C-v2.0/M3C-deps_CCC/g09-AM64L-G09RevC.01/l1.exe "/scratch/naguirre/gaussian/Gau-9059.inp" -scrdir="/scratch/naguirre/gaussian/"
 Entering Link 1 = /home/proyectos/fulerenos/M3C-v2.0/M3C-deps_CCC/g09-AM64L-G09RevC.01/l1.exe PID=      9067.
  
 Copyright (c) 1988,1990,1992,1993,1995,1998,2003,2009,2015,
            Gaussian, Inc.  All Rights Reserved.
  
 This is part of the Gaussian(R) 09 program.  It is based on
 the Gaussian(R) 03 system (copyright 2003, Gaussian, Inc.),
 the Gaussian(R) 98 system (copyright 1998, Gaussian, Inc.),
 the Gaussian(R) 94 system (copyright 1995, Gaussian, Inc.),
 the Gaussian 92(TM) system (copyright 1992, Gaussian, Inc.),
 the Gaussian 90(TM) system (copyright 1990, Gaussian, Inc.),
 the Gaussian 88(TM) system (copyright 1988, Gaussian, Inc.),
 the Gaussian 86(TM) system (copyright 1986, Carnegie Mellon
 University), and the Gaussian 82(TM) system (copyright 1983,
 Carnegie Mellon University). Gaussian is a federally registered
 trademark of Gaussian, Inc.
  
 This software contains proprietary and confidential information,
 including trade secrets, belonging to Gaussian, Inc.
  
 This software is provided under written license and may be
 used, copied, transmitted, or stored only in accord with that
 written license.
  
 The following legend is applicable only to US Government
 contracts under FAR:
  
                    RESTRICTED RIGHTS LEGEND
  
 Use, reproduction and disclosure by the US Government is
 subject to restrictions as set forth in subparagraphs (a)
 and (c) of the Commercial Computer Software - Restricted
 Rights clause in FAR 52.227-19.
  
 Gaussian, Inc.
 340 Quinnipiac St., Bldg. 40, Wallingford CT 06492
  
  
 ---------------------------------------------------------------
 Warning -- This program may not be used in any manner that
 competes with the business of Gaussian, Inc. or will provide
 assistance to any competitor of Gaussian, Inc.  The licensee
 of this program is prohibited from giving any competitor of
 Gaussian, Inc. access to this program.  By using this program,
 the user acknowledges that Gaussian, Inc. is engaged in the
 business of creating and licensing software in the field of
 computational chemistry and represents and warrants to the
 licensee that it is not a competitor of Gaussian, Inc. and that
 it will not use this program in any manner prohibited above.
 ---------------------------------------------------------------
  

 Cite this work as:
 Gaussian 09, Revision E.01,
 M. J. Frisch, G. W. Trucks, H. B. Schlegel, G. E. Scuseria, 
 M. A. Robb, J. R. Cheeseman, G. Scalmani, V. Barone, B. Mennucci, 
 G. A. Petersson, H. Nakatsuji, M. Caricato, X. Li, H. P. Hratchian, 
 A. F. Izmaylov, J. Bloino, G. Zheng, J. L. Sonnenberg, M. Hada, 
 M. Ehara, K. Toyota, R. Fukuda, J. Hasegawa, M. Ishida, T. Nakajima, 
 Y. Honda, O. Kitao, H. Nakai, T. Vreven, J. A. Montgomery, Jr., 
 J. E. Peralta, F. Ogliaro, M. Bearpark, J. J. Heyd, E. Brothers, 
 K. N. Kudin, V. N. Staroverov, T. Keith, R. Kobayashi, J. Normand, 
 K. Raghavachari, A. Rendell, J. C. Burant, S. S. Iyengar, J. Tomasi, 
 M. Cossi, N. Rega, J. M. Millam, M. Klene, J. E. Knox, J. B. Cross, 
 V. Bakken, C. Adamo, J. Jaramillo, R. Gomperts, R. E. Stratmann, 
 O. Yazyev, A. J. Austin, R. Cammi, C. Pomelli, J. W. Ochterski, 
 R. L. Martin, K. Morokuma, V. G. Zakrzewski, G. A. Voth, 
 P. Salvador, J. J. Dannenberg, S. Dapprich, A. D. Daniels, 
 O. Farkas, J. B. Foresman, J. V. Ortiz, J. Cioslowski, 
 and D. J. Fox, Gaussian, Inc., Wallingford CT, 2013.
 
 ******************************************
 Gaussian 09:  EM64L-G09RevE.01 30-Nov-2015
                 3-Aug-2016 
 ******************************************
 %NProcShared=4
 Will use up to    4 processors via shared memory.
 ------------------------------
 #p b3lyp/6-311++G(3df,2p) freq
 ------------------------------
 1/10=4,30=1,38=1/1,3;
 2/12=2,17=6,18=5,40=1/2;
 3/5=4,6=6,7=1216,11=2,16=1,25=1,30=1,71=2,74=-5,140=1/1,2,3;
 4//1;
 5/5=2,38=5,98=1/2;
 8/6=4,10=90,11=11/1;
 11/6=1,8=1,9=11,15=111,16=1/1,2,10;
 10/6=1/2;
 6/7=2,8=2,9=2,10=2,18=1,28=1/1;
 7/8=1,10=1,25=1/1,2,3,16;
 1/10=4,30=1/3;
 99//99;
 Leave Link    1 at Wed Aug  3 23:00:00 2016, MaxMem=           0 cpu:         0.3
 (Enter /home/proyectos/fulerenos/M3C-v2.0/M3C-deps_CCC/g09-AM64L-G09RevC.01/l101.exe)
 ---------
 b3lyp opt
 ---------
 Symbolic Z-matrix:
 Charge =  2 Multiplicity = 2
 S                    -1.80774  -0.13066  -0.43902 
 S                     1.24224   0.36942   0.9307 
 C                    -0.69932  -1.32509  -0.40938 
 C                    -0.05497  -0.27506   0.20125 
 H                     0.72347   1.61917   1.15179 
 
 NAtoms=      5 NQM=        5 NQMF=       0 NMMI=      0 NMMIF=      0
                NMic=       0 NMicF=      0.
                    Isotopes and Nuclear Properties:
 (Nuclear quadrupole moments (NQMom) in fm**2, nuclear magnetic moments (NMagM)
  in nuclear magnetons)

  Atom         1           2           3           4           5
 IAtWgt=          32          32          12          12           1
 AtmWgt=  31.9720718  31.9720718  12.0000000  12.0000000   1.0078250
 NucSpn=           0           0           0           0           1
 AtZEff=   0.0000000   0.0000000   0.0000000   0.0000000   0.0000000
 NQMom=    0.0000000   0.0000000   0.0000000   0.0000000   0.0000000
 NMagM=    0.0000000   0.0000000   0.0000000   0.0000000   2.7928460
 AtZNuc=  16.0000000  16.0000000   6.0000000   6.0000000   1.0000000
 Leave Link  101 at Wed Aug  3 23:00:00 2016, MaxMem=    33554432 cpu:         0.2
 (Enter /home/proyectos/fulerenos/M3C-v2.0/M3C-deps_CCC/g09-AM64L-G09RevC.01/l103.exe)

 GradGradGradGradGradGradGradGradGradGradGradGradGradGradGradGradGradGrad
 Berny optimization.
 Initialization pass.
 Trust Radius=3.00D-01 FncErr=1.00D-07 GrdErr=1.00D-07
 Number of steps in this run=      2 maximum allowed number of steps=      2.
 GradGradGradGradGradGradGradGradGradGradGradGradGradGradGradGradGradGrad

 Leave Link  103 at Wed Aug  3 23:00:00 2016, MaxMem=    33554432 cpu:         0.1
 (Enter /home/proyectos/fulerenos/M3C-v2.0/M3C-deps_CCC/g09-AM64L-G09RevC.01/l202.exe)
                          Input orientation:                          
 ---------------------------------------------------------------------
 Center     Atomic      Atomic             Coordinates (Angstroms)
 Number     Number       Type             X           Y           Z
 ---------------------------------------------------------------------
      1         16           0       -1.807742   -0.130658   -0.439019
      2         16           0        1.242244    0.369423    0.930697
      3          6           0       -0.699322   -1.325086   -0.409384
      4          6           0       -0.054968   -0.275060    0.201247
      5          1           0        0.723470    1.619168    1.151795
 ---------------------------------------------------------------------
                    Distance matrix (angstroms):
                    1          2          3          4          5
     1  S    0.000000
     2  S    3.380624   0.000000
     3  C    1.629764   2.904626   0.000000
     4  C    1.871633   1.621794   1.374997   0.000000
     5  H    3.464046   1.371085   3.623568   2.257788   0.000000
 Stoichiometry    C2HS2(2+,2)
 Framework group  CS[SG(C2HS2)]
 Deg. of freedom     7
 Full point group                 CS      NOp   2
 Largest Abelian subgroup         CS      NOp   2
 Largest concise Abelian subgroup C1      NOp   1
                         Standard orientation:                         
 ---------------------------------------------------------------------
 Center     Atomic      Atomic             Coordinates (Angstroms)
 Number     Number       Type             X           Y           Z
 ---------------------------------------------------------------------
      1         16           0       -1.093631   -1.223364    0.000000
      2         16           0        1.470216    0.980112   -0.000000
      3          6           0       -1.372248    0.382407    0.000000
      4          6           0       -0.000000    0.295511   -0.000000
      5          1           0        2.208117   -0.175473   -0.000000
 ---------------------------------------------------------------------
 Rotational constants (GHZ):     23.2826487      2.5984205      2.3375430
 Leave Link  202 at Wed Aug  3 23:00:00 2016, MaxMem=    33554432 cpu:         0.0
 (Enter /home/proyectos/fulerenos/M3C-v2.0/M3C-deps_CCC/g09-AM64L-G09RevC.01/l301.exe)
 Standard basis: 6-311++G(3df,2p) (5D, 7F)
 Ernie: Thresh=  0.10000D-02 Tol=  0.10000D-05 Strict=F.
 There are   144 symmetry adapted cartesian basis functions of A'  symmetry.
 There are    62 symmetry adapted cartesian basis functions of A"  symmetry.
 There are   124 symmetry adapted basis functions of A'  symmetry.
 There are    58 symmetry adapted basis functions of A"  symmetry.
   182 basis functions,   272 primitive gaussians,   206 cartesian basis functions
    22 alpha electrons       21 beta electrons
       nuclear repulsion energy       171.9561910136 Hartrees.
 IExCor=  402 DFT=T Ex+Corr=B3LYP ExCW=0 ScaHFX=  0.200000
 ScaDFX=  0.800000  0.720000  1.000000  0.810000 ScalE2=  1.000000  1.000000
 IRadAn=      0 IRanWt=     -1 IRanGd=            0 ICorTp=0 IEmpDi=  4
 NAtoms=    5 NActive=    5 NUniq=    5 SFac= 1.00D+00 NAtFMM=   60 NAOKFM=F Big=F
 Integral buffers will be    131072 words long.
 Raffenetti 2 integral format.
 Two-electron integral symmetry is turned on.
 Leave Link  301 at Wed Aug  3 23:00:00 2016, MaxMem=    33554432 cpu:         0.2
 (Enter /home/proyectos/fulerenos/M3C-v2.0/M3C-deps_CCC/g09-AM64L-G09RevC.01/l302.exe)
 NPDir=0 NMtPBC=     1 NCelOv=     1 NCel=       1 NClECP=     1 NCelD=      1
         NCelK=      1 NCelE2=     1 NClLst=     1 CellRange=     0.0.
 One-electron integrals computed using PRISM.
 NBasis=   182 RedAO= T EigKep=  4.11D-05  NBF=   124    58
 NBsUse=   182 1.00D-06 EigRej= -1.00D+00 NBFU=   124    58
 Precomputing XC quadrature grid using
 IXCGrd= 4 IRadAn=           0 IRanWt=          -1 IRanGd=           0 AccXCQ= 0.00D+00.
 Generated NRdTot=       0 NPtTot=           0 NUsed=           0 NTot=          32
 NSgBfM=   206   206   206   206   206 MxSgAt=     5 MxSgA2=     5.
 Leave Link  302 at Wed Aug  3 23:00:00 2016, MaxMem=    33554432 cpu:         0.9
 (Enter /home/proyectos/fulerenos/M3C-v2.0/M3C-deps_CCC/g09-AM64L-G09RevC.01/l303.exe)
 DipDrv:  MaxL=1.
 Leave Link  303 at Wed Aug  3 23:00:00 2016, MaxMem=    33554432 cpu:         0.1
 (Enter /home/proyectos/fulerenos/M3C-v2.0/M3C-deps_CCC/g09-AM64L-G09RevC.01/l401.exe)
 ExpMin= 3.60D-02 ExpMax= 9.34D+04 ExpMxC= 3.17D+03 IAcc=3 IRadAn=         5 AccDes= 0.00D+00
 Harris functional with IExCor=  402 and IRadAn=       5 diagonalized for initial guess.
 HarFok:  IExCor=  402 AccDes= 0.00D+00 IRadAn=         5 IDoV= 1 UseB2=F ITyADJ=14
 ICtDFT=  3500011 ScaDFX=  1.000000  1.000000  1.000000  1.000000
 FoFCou: FMM=F IPFlag=           0 FMFlag=      100000 FMFlg1=           0
         NFxFlg=           0 DoJE=T BraDBF=F KetDBF=T FulRan=T
         wScrn=  0.000000 ICntrl=     500 IOpCl=  0 I1Cent=   200000004 NGrid=           0
         NMat0=    1 NMatS0=      1 NMatT0=    0 NMatD0=    1 NMtDS0=    0 NMtDT0=    0
 Petite list used in FoFCou.
 Harris En= -872.589058975511    
 JPrj=0 DoOrth=F DoCkMO=F.
 Initial guess orbital symmetries:
 Alpha Orbitals:
       Occupied  (A') (A') (A') (A') (A') (A') (A') (A') (A") (A')
                 (A') (A") (A') (A') (A') (A') (A') (A") (A') (A')
                 (A") (A')
       Virtual   (A") (A') (A") (A') (A') (A') (A') (A') (A") (A')
                 (A") (A') (A') (A') (A") (A') (A') (A') (A") (A')
                 (A') (A") (A') (A') (A') (A") (A') (A") (A') (A')
                 (A") (A') (A') (A") (A') (A") (A') (A') (A') (A')
                 (A") (A") (A') (A') (A') (A') (A") (A') (A') (A")
                 (A') (A") (A") (A') (A') (A") (A') (A') (A') (A')
                 (A") (A") (A') (A') (A') (A") (A') (A") (A') (A')
                 (A') (A') (A') (A") (A') (A") (A') (A") (A') (A")
                 (A') (A") (A') (A") (A') (A") (A") (A') (A') (A")
                 (A') (A") (A') (A') (A') (A') (A") (A') (A') (A')
                 (A") (A') (A') (A') (A") (A') (A") (A') (A") (A')
                 (A') (A') (A") (A") (A') (A") (A') (A') (A') (A")
                 (A') (A') (A") (A') (A') (A") (A') (A') (A") (A")
                 (A') (A") (A') (A") (A') (A') (A') (A') (A") (A')
                 (A') (A") (A") (A') (A') (A") (A') (A') (A') (A')
                 (A") (A") (A') (A') (A') (A') (A') (A') (A') (A')
 Beta  Orbitals:
       Occupied  (A') (A') (A') (A') (A') (A') (A') (A') (A") (A')
                 (A') (A") (A') (A') (A') (A') (A') (A") (A') (A')
                 (A")
       Virtual   (A') (A") (A') (A") (A') (A') (A') (A') (A') (A")
                 (A') (A") (A') (A') (A') (A") (A') (A') (A') (A")
                 (A') (A') (A") (A') (A') (A') (A") (A') (A") (A')
                 (A') (A") (A') (A') (A") (A') (A") (A') (A') (A')
                 (A') (A") (A") (A') (A') (A') (A') (A") (A') (A')
                 (A") (A') (A") (A") (A') (A') (A") (A') (A') (A')
                 (A') (A") (A") (A') (A') (A') (A") (A') (A") (A')
                 (A') (A') (A') (A') (A") (A') (A") (A') (A") (A')
                 (A") (A') (A") (A') (A") (A') (A") (A") (A') (A')
                 (A") (A') (A") (A') (A') (A') (A') (A") (A') (A')
                 (A') (A") (A') (A') (A') (A") (A') (A") (A') (A")
                 (A') (A') (A') (A") (A") (A') (A") (A') (A') (A')
                 (A") (A') (A') (A") (A') (A') (A") (A') (A') (A")
                 (A") (A') (A") (A') (A") (A') (A') (A') (A') (A")
                 (A') (A') (A") (A") (A') (A') (A") (A') (A') (A')
                 (A') (A") (A") (A') (A') (A') (A') (A') (A') (A')
                 (A')
 The electronic state of the initial guess is 2-A'.
 Initial guess <Sx>= 0.0000 <Sy>= 0.0000 <Sz>= 0.5000 <S**2>= 0.7500 S= 0.5000
 Leave Link  401 at Wed Aug  3 23:00:01 2016, MaxMem=    33554432 cpu:         3.0
 (Enter /home/proyectos/fulerenos/M3C-v2.0/M3C-deps_CCC/g09-AM64L-G09RevC.01/l502.exe)
 UHF open shell SCF:
 Using DIIS extrapolation, IDIIS=  1040.
 Integral symmetry usage will be decided dynamically.
 IVT=      148638 IEndB=      148638 NGot=    33554432 MDV=    33465077
 LenX=    33465077 LenY=    33422200
 Requested convergence on RMS density matrix=1.00D-08 within 128 cycles.
 Requested convergence on MAX density matrix=1.00D-06.
 Requested convergence on             energy=1.00D-06.
 No special actions if energy rises.
 Fock matrices will be formed incrementally for  20 cycles.

 Cycle   1  Pass 1  IDiag  1:
 FoFJK:  IHMeth= 1 ICntrl=       0 DoSepK=F KAlg= 0 I1Cent=   0 FoldK=F
 IRaf= 960000000 NMat=   1 IRICut=       1 DoRegI=T DoRafI=F ISym2E= 1.
 FoFCou: FMM=F IPFlag=           0 FMFlag=      100000 FMFlg1=           0
         NFxFlg=           0 DoJE=F BraDBF=F KetDBF=F FulRan=T
         wScrn=  0.000000 ICntrl=       0 IOpCl=  1 I1Cent=           0 NGrid=           0
         NMat0=    1 NMatS0=      1 NMatT0=    0 NMatD0=    1 NMtDS0=    0 NMtDT0=    0
 Petite list used in FoFCou.
 E= -872.104469178370    
 DIIS: error= 2.67D-02 at cycle   1 NSaved=   1.
 NSaved= 1 IEnMin= 1 EnMin= -872.104469178370     IErMin= 1 ErrMin= 2.67D-02
 ErrMax= 2.67D-02  0.00D+00 EMaxC= 1.00D-01 BMatC= 6.54D-01 BMatP= 6.54D-01
 IDIUse=3 WtCom= 7.33D-01 WtEn= 2.67D-01
 Coeff-Com:  0.100D+01
 Coeff-En:   0.100D+01
 Coeff:      0.100D+01
 Gap=     0.046 Goal=   None    Shift=    0.000
 Gap=     0.109 Goal=   None    Shift=    0.000
 GapD=    0.046 DampG=0.250 DampE=0.500 DampFc=0.2500 IDamp=-1.
 Damping current iteration by 2.50D-01
 RMSDP=8.42D-03 MaxDP=4.92D-01              OVMax= 4.60D-01

 Cycle   2  Pass 1  IDiag  1:
 RMSU=  2.09D-03    CP:  1.01D+00
 E= -872.156810625931     Delta-E=       -0.052341447561 Rises=F Damp=T
 DIIS: error= 9.05D-03 at cycle   2 NSaved=   2.
 NSaved= 2 IEnMin= 2 EnMin= -872.156810625931     IErMin= 2 ErrMin= 9.05D-03
 ErrMax= 9.05D-03  0.00D+00 EMaxC= 1.00D-01 BMatC= 1.27D-01 BMatP= 6.54D-01
 IDIUse=3 WtCom= 9.09D-01 WtEn= 9.05D-02
 Coeff-Com: -0.323D+00 0.132D+01
 Coeff-En:   0.685D-01 0.932D+00
 Coeff:     -0.288D+00 0.129D+01
 Gap=     0.116 Goal=   None    Shift=    0.000
 Gap=     0.164 Goal=   None    Shift=    0.000
 RMSDP=3.66D-03 MaxDP=2.98D-01 DE=-5.23D-02 OVMax= 4.43D-01

 Cycle   3  Pass 1  IDiag  1:
 RMSU=  3.57D-03    CP:  1.05D+00  9.23D-01
 E= -872.244103047674     Delta-E=       -0.087292421744 Rises=F Damp=F
 DIIS: error= 1.17D-02 at cycle   3 NSaved=   3.
 NSaved= 3 IEnMin= 3 EnMin= -872.244103047674     IErMin= 2 ErrMin= 9.05D-03
 ErrMax= 1.17D-02  0.00D+00 EMaxC= 1.00D-01 BMatC= 7.65D-02 BMatP= 1.27D-01
 IDIUse=3 WtCom= 8.83D-01 WtEn= 1.17D-01
 Coeff-Com: -0.299D+00 0.705D+00 0.594D+00
 Coeff-En:   0.000D+00 0.000D+00 0.100D+01
 Coeff:     -0.264D+00 0.623D+00 0.641D+00
 Gap=     0.134 Goal=   None    Shift=    0.000
 Gap=     0.126 Goal=   None    Shift=    0.000
 RMSDP=1.40D-03 MaxDP=7.75D-02 DE=-8.73D-02 OVMax= 1.19D-01

 Cycle   4  Pass 1  IDiag  1:
 RMSU=  1.08D-03    CP:  1.04D+00  1.30D+00  8.89D-01
 E= -872.259374884673     Delta-E=       -0.015271836998 Rises=F Damp=F
 DIIS: error= 7.08D-03 at cycle   4 NSaved=   4.
 NSaved= 4 IEnMin= 4 EnMin= -872.259374884673     IErMin= 4 ErrMin= 7.08D-03
 ErrMax= 7.08D-03  0.00D+00 EMaxC= 1.00D-01 BMatC= 2.29D-02 BMatP= 7.65D-02
 IDIUse=3 WtCom= 9.29D-01 WtEn= 7.08D-02
 Coeff-Com: -0.229D-01 0.713D-01 0.352D+00 0.600D+00
 Coeff-En:   0.000D+00 0.000D+00 0.286D+00 0.714D+00
 Coeff:     -0.213D-01 0.663D-01 0.347D+00 0.608D+00
 Gap=     0.138 Goal=   None    Shift=    0.000
 Gap=     0.149 Goal=   None    Shift=    0.000
 RMSDP=6.60D-04 MaxDP=2.65D-02 DE=-1.53D-02 OVMax= 7.58D-02

 Cycle   5  Pass 1  IDiag  1:
 RMSU=  4.52D-04    CP:  1.04D+00  1.14D+00  9.45D-01  7.47D-01
 E= -872.265314551549     Delta-E=       -0.005939666876 Rises=F Damp=F
 DIIS: error= 3.01D-03 at cycle   5 NSaved=   5.
 NSaved= 5 IEnMin= 5 EnMin= -872.265314551549     IErMin= 5 ErrMin= 3.01D-03
 ErrMax= 3.01D-03  0.00D+00 EMaxC= 1.00D-01 BMatC= 4.46D-03 BMatP= 2.29D-02
 IDIUse=3 WtCom= 9.70D-01 WtEn= 3.01D-02
 Coeff-Com:  0.331D-01-0.531D-01 0.152D+00 0.425D+00 0.443D+00
 Coeff-En:   0.000D+00 0.000D+00 0.000D+00 0.159D+00 0.841D+00
 Coeff:      0.321D-01-0.516D-01 0.147D+00 0.417D+00 0.455D+00
 Gap=     0.143 Goal=   None    Shift=    0.000
 Gap=     0.142 Goal=   None    Shift=    0.000
 RMSDP=2.75D-04 MaxDP=1.44D-02 DE=-5.94D-03 OVMax= 2.99D-02

 Cycle   6  Pass 1  IDiag  1:
 RMSU=  1.75D-04    CP:  1.04D+00  1.12D+00  9.71D-01  8.44D-01  6.61D-01
 E= -872.266825890046     Delta-E=       -0.001511338497 Rises=F Damp=F
 DIIS: error= 8.03D-04 at cycle   6 NSaved=   6.
 NSaved= 6 IEnMin= 6 EnMin= -872.266825890046     IErMin= 6 ErrMin= 8.03D-04
 ErrMax= 8.03D-04  0.00D+00 EMaxC= 1.00D-01 BMatC= 2.78D-04 BMatP= 4.46D-03
 IDIUse=3 WtCom= 9.92D-01 WtEn= 8.03D-03
 Coeff-Com:  0.206D-01-0.380D-01 0.314D-01 0.116D+00 0.197D+00 0.673D+00
 Coeff-En:   0.000D+00 0.000D+00 0.000D+00 0.000D+00 0.000D+00 0.100D+01
 Coeff:      0.204D-01-0.377D-01 0.311D-01 0.115D+00 0.195D+00 0.676D+00
 Gap=     0.143 Goal=   None    Shift=    0.000
 Gap=     0.143 Goal=   None    Shift=    0.000
 RMSDP=1.07D-04 MaxDP=8.96D-03 DE=-1.51D-03 OVMax= 7.43D-03

 Cycle   7  Pass 1  IDiag  1:
 RMSU=  7.06D-05    CP:  1.04D+00  1.10D+00  9.77D-01  8.67D-01  7.63D-01
                    CP:  1.12D+00
 E= -872.266885163112     Delta-E=       -0.000059273067 Rises=F Damp=F
 DIIS: error= 6.45D-04 at cycle   7 NSaved=   7.
 NSaved= 7 IEnMin= 7 EnMin= -872.266885163112     IErMin= 7 ErrMin= 6.45D-04
 ErrMax= 6.45D-04  0.00D+00 EMaxC= 1.00D-01 BMatC= 1.89D-04 BMatP= 2.78D-04
 IDIUse=3 WtCom= 9.94D-01 WtEn= 6.45D-03
 Coeff-Com:  0.372D-02-0.633D-02-0.253D-01-0.643D-01-0.141D-01 0.513D+00
 Coeff-Com:  0.593D+00
 Coeff-En:   0.000D+00 0.000D+00 0.000D+00 0.000D+00 0.000D+00 0.252D+00
 Coeff-En:   0.748D+00
 Coeff:      0.370D-02-0.629D-02-0.251D-01-0.639D-01-0.140D-01 0.511D+00
 Coeff:      0.594D+00
 Gap=     0.143 Goal=   None    Shift=    0.000
 Gap=     0.144 Goal=   None    Shift=    0.000
 RMSDP=6.30D-05 MaxDP=2.77D-03 DE=-5.93D-05 OVMax= 4.73D-03

 Cycle   8  Pass 1  IDiag  1:
 RMSU=  3.56D-05    CP:  1.03D+00  1.10D+00  9.82D-01  8.72D-01  8.06D-01
                    CP:  1.32D+00  6.21D-01
 E= -872.266947223314     Delta-E=       -0.000062060202 Rises=F Damp=F
 DIIS: error= 1.94D-04 at cycle   8 NSaved=   8.
 NSaved= 8 IEnMin= 8 EnMin= -872.266947223314     IErMin= 8 ErrMin= 1.94D-04
 ErrMax= 1.94D-04  0.00D+00 EMaxC= 1.00D-01 BMatC= 1.15D-05 BMatP= 1.89D-04
 IDIUse=3 WtCom= 9.98D-01 WtEn= 1.94D-03
 Coeff-Com: -0.800D-03 0.147D-02-0.926D-02-0.257D-01-0.181D-01 0.136D-01
 Coeff-Com:  0.192D+00 0.847D+00
 Coeff-En:   0.000D+00 0.000D+00 0.000D+00 0.000D+00 0.000D+00 0.000D+00
 Coeff-En:   0.000D+00 0.100D+01
 Coeff:     -0.799D-03 0.147D-02-0.924D-02-0.257D-01-0.180D-01 0.136D-01
 Coeff:      0.192D+00 0.847D+00
 Gap=     0.144 Goal=   None    Shift=    0.000
 Gap=     0.144 Goal=   None    Shift=    0.000
 RMSDP=2.61D-05 MaxDP=1.50D-03 DE=-6.21D-05 OVMax= 2.71D-03

 Cycle   9  Pass 1  IDiag  1:
 RMSU=  1.43D-05    CP:  1.03D+00  1.10D+00  9.83D-01  8.78D-01  8.31D-01
                    CP:  1.38D+00  7.46D-01  1.11D+00
 E= -872.266956013762     Delta-E=       -0.000008790448 Rises=F Damp=F
 DIIS: error= 1.07D-04 at cycle   9 NSaved=   9.
 NSaved= 9 IEnMin= 9 EnMin= -872.266956013762     IErMin= 9 ErrMin= 1.07D-04
 ErrMax= 1.07D-04  0.00D+00 EMaxC= 1.00D-01 BMatC= 2.13D-06 BMatP= 1.15D-05
 IDIUse=3 WtCom= 9.99D-01 WtEn= 1.07D-03
 Coeff-Com: -0.848D-03 0.153D-02 0.142D-02 0.510D-02-0.172D-02-0.963D-01
 Coeff-Com: -0.447D-01 0.228D+00 0.908D+00
 Coeff-En:   0.000D+00 0.000D+00 0.000D+00 0.000D+00 0.000D+00 0.000D+00
 Coeff-En:   0.000D+00 0.000D+00 0.100D+01
 Coeff:     -0.847D-03 0.153D-02 0.141D-02 0.509D-02-0.172D-02-0.962D-01
 Coeff:     -0.447D-01 0.228D+00 0.908D+00
 Gap=     0.144 Goal=   None    Shift=    0.000
 Gap=     0.144 Goal=   None    Shift=    0.000
 RMSDP=1.63D-05 MaxDP=1.09D-03 DE=-8.79D-06 OVMax= 2.46D-03

 Cycle  10  Pass 1  IDiag  1:
 RMSU=  6.53D-06    CP:  1.03D+00  1.10D+00  9.83D-01  8.81D-01  8.46D-01
                    CP:  1.41D+00  7.90D-01  1.36D+00  1.51D+00
 E= -872.266960124906     Delta-E=       -0.000004111144 Rises=F Damp=F
 DIIS: error= 8.78D-05 at cycle  10 NSaved=  10.
 NSaved=10 IEnMin=10 EnMin= -872.266960124906     IErMin=10 ErrMin= 8.78D-05
 ErrMax= 8.78D-05  0.00D+00 EMaxC= 1.00D-01 BMatC= 8.41D-07 BMatP= 2.13D-06
 IDIUse=1 WtCom= 1.00D+00 WtEn= 0.00D+00
 Coeff-Com:  0.193D-03-0.500D-03 0.281D-02 0.853D-02 0.308D-02 0.128D-01
 Coeff-Com: -0.589D-01-0.291D+00-0.149D+00 0.147D+01
 Coeff:      0.193D-03-0.500D-03 0.281D-02 0.853D-02 0.308D-02 0.128D-01
 Coeff:     -0.589D-01-0.291D+00-0.149D+00 0.147D+01
 Gap=     0.144 Goal=   None    Shift=    0.000
 Gap=     0.144 Goal=   None    Shift=    0.000
 RMSDP=1.87D-05 MaxDP=1.29D-03 DE=-4.11D-06 OVMax= 3.17D-03

 Cycle  11  Pass 1  IDiag  1:
 RMSU=  3.91D-06    CP:  1.03D+00  1.10D+00  9.83D-01  8.84D-01  8.52D-01
                    CP:  1.43D+00  8.31D-01  1.56D+00  2.43D+00  2.24D+00
 E= -872.266963596790     Delta-E=       -0.000003471884 Rises=F Damp=F
 DIIS: error= 5.21D-05 at cycle  11 NSaved=  11.
 NSaved=11 IEnMin=11 EnMin= -872.266963596790     IErMin=11 ErrMin= 5.21D-05
 ErrMax= 5.21D-05  0.00D+00 EMaxC= 1.00D-01 BMatC= 3.29D-07 BMatP= 8.41D-07
 IDIUse=1 WtCom= 1.00D+00 WtEn= 0.00D+00
 Coeff-Com:  0.308D-03-0.524D-03-0.763D-03-0.446D-02 0.129D-02 0.464D-01
 Coeff-Com:  0.286D-01-0.583D-01-0.453D+00-0.905D-01 0.153D+01
 Coeff:      0.308D-03-0.524D-03-0.763D-03-0.446D-02 0.129D-02 0.464D-01
 Coeff:      0.286D-01-0.583D-01-0.453D+00-0.905D-01 0.153D+01
 Gap=     0.144 Goal=   None    Shift=    0.000
 Gap=     0.144 Goal=   None    Shift=    0.000
 RMSDP=1.70D-05 MaxDP=1.18D-03 DE=-3.47D-06 OVMax= 3.02D-03

 Cycle  12  Pass 1  IDiag  1:
 RMSU=  5.99D-06    CP:  1.03D+00  1.10D+00  9.83D-01  8.84D-01  8.57D-01
                    CP:  1.44D+00  8.59D-01  1.74D+00  3.00D+00  3.00D+00
                    CP:  2.08D+00
 E= -872.266965419643     Delta-E=       -0.000001822853 Rises=F Damp=F
 DIIS: error= 2.11D-05 at cycle  12 NSaved=  12.
 NSaved=12 IEnMin=12 EnMin= -872.266965419643     IErMin=12 ErrMin= 2.11D-05
 ErrMax= 2.11D-05  0.00D+00 EMaxC= 1.00D-01 BMatC= 8.13D-08 BMatP= 3.29D-07
 IDIUse=1 WtCom= 1.00D+00 WtEn= 0.00D+00
 Coeff-Com:  0.900D-04-0.721D-04-0.130D-02-0.386D-02 0.112D-03 0.408D-02
 Coeff-Com:  0.285D-01 0.945D-01-0.913D-02-0.560D+00 0.162D+00 0.128D+01
 Coeff:      0.900D-04-0.721D-04-0.130D-02-0.386D-02 0.112D-03 0.408D-02
 Coeff:      0.285D-01 0.945D-01-0.913D-02-0.560D+00 0.162D+00 0.128D+01
 Gap=     0.144 Goal=   None    Shift=    0.000
 Gap=     0.144 Goal=   None    Shift=    0.000
 RMSDP=1.04D-05 MaxDP=6.74D-04 DE=-1.82D-06 OVMax= 1.85D-03

 Cycle  13  Pass 1  IDiag  1:
 RMSU=  3.92D-06    CP:  1.03D+00  1.10D+00  9.83D-01  8.84D-01  8.59D-01
                    CP:  1.44D+00  8.79D-01  1.83D+00  3.00D+00  3.00D+00
                    CP:  2.95D+00  2.36D+00
 E= -872.266965866242     Delta-E=       -0.000000446599 Rises=F Damp=F
 DIIS: error= 7.39D-06 at cycle  13 NSaved=  13.
 NSaved=13 IEnMin=13 EnMin= -872.266965866242     IErMin=13 ErrMin= 7.39D-06
 ErrMax= 7.39D-06  0.00D+00 EMaxC= 1.00D-01 BMatC= 1.25D-08 BMatP= 8.13D-08
 IDIUse=1 WtCom= 1.00D+00 WtEn= 0.00D+00
 Coeff-Com: -0.847D-04 0.139D-03-0.367D-04 0.649D-03-0.316D-03-0.969D-02
 Coeff-Com: -0.276D-02 0.145D-01 0.103D+00-0.546D-01-0.291D+00 0.143D+00
 Coeff-Com:  0.110D+01
 Coeff:     -0.847D-04 0.139D-03-0.367D-04 0.649D-03-0.316D-03-0.969D-02
 Coeff:     -0.276D-02 0.145D-01 0.103D+00-0.546D-01-0.291D+00 0.143D+00
 Coeff:      0.110D+01
 Gap=     0.144 Goal=   None    Shift=    0.000
 Gap=     0.144 Goal=   None    Shift=    0.000
 RMSDP=3.30D-06 MaxDP=2.28D-04 DE=-4.47D-07 OVMax= 5.85D-04

 Cycle  14  Pass 1  IDiag  1:
 RMSU=  9.96D-07    CP:  1.03D+00  1.10D+00  9.83D-01  8.84D-01  8.60D-01
                    CP:  1.45D+00  8.85D-01  1.86D+00  3.00D+00  3.00D+00
                    CP:  3.00D+00  2.81D+00  1.24D+00
 E= -872.266965905309     Delta-E=       -0.000000039067 Rises=F Damp=F
 DIIS: error= 1.79D-06 at cycle  14 NSaved=  14.
 NSaved=14 IEnMin=14 EnMin= -872.266965905309     IErMin=14 ErrMin= 1.79D-06
 ErrMax= 1.79D-06  0.00D+00 EMaxC= 1.00D-01 BMatC= 9.23D-10 BMatP= 1.25D-08
 IDIUse=1 WtCom= 1.00D+00 WtEn= 0.00D+00
 Coeff-Com: -0.305D-04 0.371D-04 0.158D-03 0.306D-03-0.448D-04-0.260D-03
 Coeff-Com: -0.241D-02-0.855D-02-0.629D-02 0.543D-01 0.120D-01-0.142D+00
 Coeff-Com: -0.121D+00 0.121D+01
 Coeff:     -0.305D-04 0.371D-04 0.158D-03 0.306D-03-0.448D-04-0.260D-03
 Coeff:     -0.241D-02-0.855D-02-0.629D-02 0.543D-01 0.120D-01-0.142D+00
 Coeff:     -0.121D+00 0.121D+01
 Gap=     0.144 Goal=   None    Shift=    0.000
 Gap=     0.144 Goal=   None    Shift=    0.000
 RMSDP=6.31D-07 MaxDP=4.65D-05 DE=-3.91D-08 OVMax= 1.03D-04

 Cycle  15  Pass 1  IDiag  1:
 RMSU=  1.96D-07    CP:  1.03D+00  1.10D+00  9.83D-01  8.84D-01  8.60D-01
                    CP:  1.45D+00  8.86D-01  1.86D+00  3.00D+00  3.00D+00
                    CP:  3.00D+00  2.88D+00  1.29D+00  1.28D+00
 E= -872.266965907362     Delta-E=       -0.000000002053 Rises=F Damp=F
 DIIS: error= 9.08D-07 at cycle  15 NSaved=  15.
 NSaved=15 IEnMin=15 EnMin= -872.266965907362     IErMin=15 ErrMin= 9.08D-07
 ErrMax= 9.08D-07  0.00D+00 EMaxC= 1.00D-01 BMatC= 1.39D-10 BMatP= 9.23D-10
 IDIUse=1 WtCom= 1.00D+00 WtEn= 0.00D+00
 Coeff-Com:  0.190D-04-0.287D-04 0.691D-05-0.257D-04 0.122D-04 0.853D-03
 Coeff-Com: -0.286D-04-0.165D-02-0.975D-02 0.892D-02 0.254D-01-0.162D-01
 Coeff-Com: -0.115D+00 0.313D-01 0.108D+01
 Coeff:      0.190D-04-0.287D-04 0.691D-05-0.257D-04 0.122D-04 0.853D-03
 Coeff:     -0.286D-04-0.165D-02-0.975D-02 0.892D-02 0.254D-01-0.162D-01
 Coeff:     -0.115D+00 0.313D-01 0.108D+01
 Gap=     0.144 Goal=   None    Shift=    0.000
 Gap=     0.144 Goal=   None    Shift=    0.000
 RMSDP=1.23D-07 MaxDP=8.55D-06 DE=-2.05D-09 OVMax= 1.53D-05

 Cycle  16  Pass 1  IDiag  1:
 RMSU=  5.27D-08    CP:  1.03D+00  1.10D+00  9.83D-01  8.84D-01  8.60D-01
                    CP:  1.45D+00  8.86D-01  1.86D+00  3.00D+00  3.00D+00
                    CP:  3.00D+00  2.88D+00  1.30D+00  1.34D+00  1.35D+00
 E= -872.266965907538     Delta-E=       -0.000000000176 Rises=F Damp=F
 DIIS: error= 2.45D-07 at cycle  16 NSaved=  16.
 NSaved=16 IEnMin=16 EnMin= -872.266965907538     IErMin=16 ErrMin= 2.45D-07
 ErrMax= 2.45D-07  0.00D+00 EMaxC= 1.00D-01 BMatC= 1.81D-11 BMatP= 1.39D-10
 IDIUse=1 WtCom= 1.00D+00 WtEn= 0.00D+00
 Coeff-Com:  0.741D-05-0.926D-05-0.245D-04-0.622D-04 0.464D-05 0.229D-03
 Coeff-Com:  0.429D-03 0.105D-02-0.992D-03-0.702D-02 0.277D-02 0.202D-01
 Coeff-Com:  0.559D-04-0.185D+00 0.142D+00 0.103D+01
 Coeff:      0.741D-05-0.926D-05-0.245D-04-0.622D-04 0.464D-05 0.229D-03
 Coeff:      0.429D-03 0.105D-02-0.992D-03-0.702D-02 0.277D-02 0.202D-01
 Coeff:      0.559D-04-0.185D+00 0.142D+00 0.103D+01
 Gap=     0.144 Goal=   None    Shift=    0.000
 Gap=     0.144 Goal=   None    Shift=    0.000
 RMSDP=4.17D-08 MaxDP=1.95D-06 DE=-1.76D-10 OVMax= 5.18D-06

 Cycle  17  Pass 1  IDiag  1:
 RMSU=  2.07D-08    CP:  1.03D+00  1.10D+00  9.83D-01  8.84D-01  8.60D-01
                    CP:  1.45D+00  8.86D-01  1.86D+00  3.00D+00  3.00D+00
                    CP:  3.00D+00  2.89D+00  1.30D+00  1.35D+00  1.49D+00
                    CP:  1.29D+00
 E= -872.266965907568     Delta-E=       -0.000000000030 Rises=F Damp=F
 DIIS: error= 5.89D-08 at cycle  17 NSaved=  17.
 NSaved=17 IEnMin=17 EnMin= -872.266965907568     IErMin=17 ErrMin= 5.89D-08
 ErrMax= 5.89D-08  0.00D+00 EMaxC= 1.00D-01 BMatC= 1.84D-12 BMatP= 1.81D-11
 IDIUse=1 WtCom= 1.00D+00 WtEn= 0.00D+00
 Coeff-Com: -0.355D-05 0.517D-05 0.341D-05 0.724D-05 0.623D-05-0.104D-03
 Coeff-Com: -0.152D-04 0.120D-03 0.112D-02-0.533D-03-0.269D-02 0.128D-04
 Coeff-Com:  0.122D-01 0.106D-01-0.116D+00-0.890D-01 0.118D+01
 Coeff:     -0.355D-05 0.517D-05 0.341D-05 0.724D-05 0.623D-05-0.104D-03
 Coeff:     -0.152D-04 0.120D-03 0.112D-02-0.533D-03-0.269D-02 0.128D-04
 Coeff:      0.122D-01 0.106D-01-0.116D+00-0.890D-01 0.118D+01
 Gap=     0.144 Goal=   None    Shift=    0.000
 Gap=     0.144 Goal=   None    Shift=    0.000
 RMSDP=1.90D-08 MaxDP=1.23D-06 DE=-3.00D-11 OVMax= 1.73D-06

 Cycle  18  Pass 1  IDiag  1:
 RMSU=  7.78D-09    CP:  1.03D+00  1.10D+00  9.83D-01  8.84D-01  8.60D-01
                    CP:  1.45D+00  8.86D-01  1.86D+00  3.00D+00  3.00D+00
                    CP:  3.00D+00  2.88D+00  1.30D+00  1.35D+00  1.51D+00
                    CP:  1.42D+00  1.37D+00
 E= -872.266965907566     Delta-E=        0.000000000003 Rises=F Damp=F
 DIIS: error= 1.50D-08 at cycle  18 NSaved=  18.
 NSaved=18 IEnMin=17 EnMin= -872.266965907568     IErMin=18 ErrMin= 1.50D-08
 ErrMax= 1.50D-08  0.00D+00 EMaxC= 1.00D-01 BMatC= 2.02D-13 BMatP= 1.84D-12
 IDIUse=1 WtCom= 1.00D+00 WtEn= 0.00D+00
 Coeff-Com: -0.832D-06 0.101D-05 0.161D-05 0.450D-05-0.153D-05-0.154D-04
 Coeff-Com: -0.460D-04-0.119D-03 0.719D-04 0.718D-03-0.213D-03-0.195D-02
 Coeff-Com:  0.433D-03 0.153D-01-0.192D-01-0.870D-01 0.107D+00 0.985D+00
 Coeff:     -0.832D-06 0.101D-05 0.161D-05 0.450D-05-0.153D-05-0.154D-04
 Coeff:     -0.460D-04-0.119D-03 0.719D-04 0.718D-03-0.213D-03-0.195D-02
 Coeff:      0.433D-03 0.153D-01-0.192D-01-0.870D-01 0.107D+00 0.985D+00
 Gap=     0.144 Goal=   None    Shift=    0.000
 Gap=     0.144 Goal=   None    Shift=    0.000
 RMSDP=4.39D-09 MaxDP=1.84D-07 DE= 2.73D-12 OVMax= 3.41D-07

 SCF Done:  E(UB3LYP) =  -872.266965908     A.U. after   18 cycles
            NFock= 18  Conv=0.44D-08     -V/T= 2.0016
 <Sx>= 0.0000 <Sy>= 0.0000 <Sz>= 0.5000 <S**2>= 0.7602 S= 0.5051
 <L.S>= 0.000000000000E+00
 KE= 8.708380424473D+02 PE=-2.392114736807D+03 EE= 4.770535374387D+02
 Annihilation of the first spin contaminant:
 S**2 before annihilation     0.7602,   after     0.7501
 Leave Link  502 at Wed Aug  3 23:01:19 2016, MaxMem=    33554432 cpu:       312.9
 (Enter /home/proyectos/fulerenos/M3C-v2.0/M3C-deps_CCC/g09-AM64L-G09RevC.01/l801.exe)
 DoSCS=F DFT=T ScalE2(SS,OS)=  1.000000  1.000000
 Range of M.O.s used for correlation:     1   182
 NBasis=   182 NAE=    22 NBE=    21 NFC=     0 NFV=     0
 NROrb=    182 NOA=    22 NOB=    21 NVA=   160 NVB=   161

 **** Warning!!: The largest alpha MO coefficient is  0.59178418D+02


 **** Warning!!: The largest beta MO coefficient is  0.63995049D+02

 Leave Link  801 at Wed Aug  3 23:01:20 2016, MaxMem=    33554432 cpu:         0.1
 (Enter /home/proyectos/fulerenos/M3C-v2.0/M3C-deps_CCC/g09-AM64L-G09RevC.01/l1101.exe)
 Using compressed storage, NAtomX=     5.
 Will process      6 centers per pass.
 Leave Link 1101 at Wed Aug  3 23:01:20 2016, MaxMem=    33554432 cpu:         1.1
 (Enter /home/proyectos/fulerenos/M3C-v2.0/M3C-deps_CCC/g09-AM64L-G09RevC.01/l1102.exe)
 Symmetrizing basis deriv contribution to polar:
 IMax=3 JMax=2 DiffMx= 0.00D+00
 Leave Link 1102 at Wed Aug  3 23:01:20 2016, MaxMem=    33554432 cpu:         0.1
 (Enter /home/proyectos/fulerenos/M3C-v2.0/M3C-deps_CCC/g09-AM64L-G09RevC.01/l1110.exe)
 Forming Gx(P) for the SCF density, NAtomX=     5.
 Integral derivatives from FoFJK, PRISM(SPDF).
 Do as many integral derivatives as possible in FoFJK.
 G2DrvN: MDV=      33554288.
 G2DrvN: will do     6 centers at a time, making    1 passes.
 Calling FoFCou, ICntrl=  3107 FMM=F I1Cent=   0 AccDes= 0.00D+00.
 FoFJK:  IHMeth= 1 ICntrl=    3107 DoSepK=F KAlg= 0 I1Cent=   0 FoldK=F
 IRaf=         0 NMat=   1 IRICut=       1 DoRegI=T DoRafI=F ISym2E= 1.
 FoFCou: FMM=F IPFlag=           0 FMFlag=      100000 FMFlg1=           0
         NFxFlg=           0 DoJE=F BraDBF=F KetDBF=F FulRan=T
         wScrn=  0.000000 ICntrl=    3107 IOpCl=  1 I1Cent=           0 NGrid=           0
         NMat0=    1 NMatS0=      1 NMatT0=    0 NMatD0=    1 NMtDS0=    0 NMtDT0=    0
 Petite list used in FoFCou.
 End of G2Drv F.D. properties file   721 does not exist.
 End of G2Drv F.D. properties file   722 does not exist.
 End of G2Drv F.D. properties file   788 does not exist.
 Leave Link 1110 at Wed Aug  3 23:01:49 2016, MaxMem=    33554432 cpu:       117.8
 (Enter /home/proyectos/fulerenos/M3C-v2.0/M3C-deps_CCC/g09-AM64L-G09RevC.01/l1002.exe)
 Minotr:  UHF open shell wavefunction.
          IDoAtm=11111
          Direct CPHF calculation.
          Differentiating once with respect to electric field.
                with respect to dipole field.
          Differentiating once with respect to nuclear coordinates.
          Using symmetry in CPHF.
          Requested convergence is 1.0D-08 RMS, and 1.0D-07 maximum.
          Secondary convergence is 1.0D-12 RMS, and 1.0D-12 maximum.
          NewPWx=T KeepS1=F KeepF1=F KeepIn=T MapXYZ=F SortEE=F KeepMc=T.
          MDV=      33554014 using IRadAn=       2.
 Generate precomputed XC quadrature information.
          Solving linear equations simultaneously, MaxMat=       0.
 FoFJK:  IHMeth= 1 ICntrl=       0 DoSepK=F KAlg= 0 I1Cent=   0 FoldK=F
 IRaf= 960000000 NMat=  18 IRICut=      45 DoRegI=T DoRafI=T ISym2E= 2.
 FoFCou: FMM=F IPFlag=           0 FMFlag=      100000 FMFlg1=           0
         NFxFlg=           0 DoJE=F BraDBF=F KetDBF=F FulRan=T
         wScrn=  0.000000 ICntrl=       0 IOpCl=  1 I1Cent=           0 NGrid=           0
         NMat0=   18 NMatS0=     18 NMatT0=    0 NMatD0=   18 NMtDS0=    0 NMtDT0=    0
 Integrals replicated using symmetry in FoFCou.
          There are    18 degrees of freedom in the 1st order CPHF.  IDoFFX=6 NUNeed=     3.
     16 vectors produced by pass  0 Test12= 3.83D-14 5.56D-09 XBig12= 3.18D+02 9.54D+00.
 AX will form    16 AO Fock derivatives at one time.
     15 vectors produced by pass  1 Test12= 3.83D-14 5.56D-09 XBig12= 6.76D+01 1.54D+00.
     15 vectors produced by pass  2 Test12= 3.83D-14 5.56D-09 XBig12= 2.31D+00 5.22D-01.
     15 vectors produced by pass  3 Test12= 3.83D-14 5.56D-09 XBig12= 8.12D-02 8.09D-02.
     15 vectors produced by pass  4 Test12= 3.83D-14 5.56D-09 XBig12= 1.79D-03 1.44D-02.
     15 vectors produced by pass  5 Test12= 3.83D-14 5.56D-09 XBig12= 2.04D-05 1.03D-03.
     15 vectors produced by pass  6 Test12= 3.83D-14 5.56D-09 XBig12= 2.93D-07 1.13D-04.
     14 vectors produced by pass  7 Test12= 3.83D-14 5.56D-09 XBig12= 1.92D-09 5.67D-06.
      6 vectors produced by pass  8 Test12= 3.83D-14 5.56D-09 XBig12= 1.08D-11 4.95D-07.
      3 vectors produced by pass  9 Test12= 3.83D-14 5.56D-09 XBig12= 5.18D-14 4.10D-08.
      2 vectors produced by pass 10 Test12= 3.83D-14 5.56D-09 XBig12= 2.50D-15 1.08D-08.
      1 vectors produced by pass 11 Test12= 3.83D-14 5.56D-09 XBig12= 3.34D-16 6.02D-09.
 InvSVY:  IOpt=1 It=  1 EMax= 7.11D-15
 Solved reduced A of dimension   132 with    18 vectors.
 FullF1:  Do perturbations    1 to     3.
 Isotropic polarizability for W=    0.000000       50.10 Bohr**3.
 End of Minotr F.D. properties file   721 does not exist.
 End of Minotr F.D. properties file   722 does not exist.
 End of Minotr F.D. properties file   788 does not exist.
 Leave Link 1002 at Wed Aug  3 23:02:55 2016, MaxMem=    33554432 cpu:       261.6
 (Enter /home/proyectos/fulerenos/M3C-v2.0/M3C-deps_CCC/g09-AM64L-G09RevC.01/l601.exe)
 Copying SCF densities to generalized density rwf, IOpCl= 1 IROHF=0.

 **********************************************************************

            Population analysis using the SCF density.

 **********************************************************************

 Orbital symmetries:
 Alpha Orbitals:
       Occupied  (A') (A') (A') (A') (A') (A') (A') (A") (A') (A')
                 (A") (A') (A') (A') (A') (A') (A') (A") (A') (A')
                 (A") (A')
       Virtual   (A") (A') (A") (A') (A') (A') (A') (A') (A") (A')
                 (A") (A') (A') (A") (A') (A') (A') (A") (A") (A")
                 (A') (A') (A") (A') (A') (A') (A') (A') (A") (A')
                 (A') (A') (A") (A') (A") (A') (A') (A') (A') (A')
                 (A") (A') (A") (A') (A') (A") (A') (A') (A') (A")
                 (A') (A") (A") (A') (A') (A") (A') (A') (A') (A')
                 (A") (A") (A') (A') (A") (A') (A') (A") (A') (A')
                 (A') (A') (A') (A") (A') (A") (A') (A") (A') (A")
                 (A') (A") (A') (A") (A') (A") (A") (A') (A') (A')
                 (A") (A") (A') (A') (A') (A") (A') (A') (A') (A')
                 (A") (A') (A') (A') (A") (A') (A") (A') (A") (A')
                 (A') (A') (A") (A") (A') (A") (A') (A') (A') (A")
                 (A') (A') (A") (A') (A') (A") (A') (A") (A') (A')
                 (A") (A") (A') (A") (A') (A') (A') (A') (A") (A')
                 (A') (A") (A") (A') (A') (A") (A') (A') (A') (A')
                 (A") (A") (A') (A') (A') (A') (A') (A') (A') (A')
 Beta  Orbitals:
       Occupied  (A') (A') (A') (A') (A') (A') (A") (A') (A') (A')
                 (A") (A') (A') (A') (A') (A') (A') (A") (A') (A')
                 (A")
       Virtual   (A') (A") (A') (A") (A') (A') (A') (A') (A') (A")
                 (A') (A") (A') (A') (A") (A') (A') (A') (A") (A")
                 (A") (A') (A') (A") (A') (A') (A') (A') (A') (A")
                 (A') (A') (A') (A") (A') (A") (A') (A') (A') (A')
                 (A') (A") (A') (A") (A') (A') (A") (A') (A') (A')
                 (A") (A') (A") (A") (A') (A') (A") (A') (A') (A')
                 (A") (A') (A") (A') (A') (A") (A') (A") (A') (A')
                 (A') (A') (A') (A') (A") (A') (A") (A') (A") (A')
                 (A") (A') (A") (A') (A") (A') (A") (A") (A') (A')
                 (A") (A') (A") (A') (A') (A') (A") (A') (A') (A')
                 (A') (A") (A') (A') (A') (A") (A') (A") (A') (A")
                 (A') (A') (A') (A") (A') (A") (A") (A') (A') (A')
                 (A") (A') (A") (A') (A') (A') (A") (A') (A") (A')
                 (A") (A') (A") (A') (A") (A') (A') (A') (A') (A")
                 (A') (A') (A") (A") (A') (A') (A") (A') (A') (A')
                 (A') (A") (A") (A') (A') (A') (A') (A') (A') (A')
                 (A')
 The electronic state is 2-A'.
 Alpha  occ. eigenvalues --  -89.44945 -89.39772 -10.79364 -10.79090  -8.52680
 Alpha  occ. eigenvalues --   -8.47865  -6.48927  -6.48582  -6.48562  -6.44099
 Alpha  occ. eigenvalues --   -6.43741  -6.43641  -1.44108  -1.29837  -1.13113
 Alpha  occ. eigenvalues --   -1.01369  -0.95894  -0.90289  -0.89253  -0.85335
 Alpha  occ. eigenvalues --   -0.77740  -0.77058
 Alpha virt. eigenvalues --   -0.62666  -0.54503  -0.51574  -0.41844  -0.39667
 Alpha virt. eigenvalues --   -0.37614  -0.32884  -0.27105  -0.26757  -0.26634
 Alpha virt. eigenvalues --   -0.25895  -0.25233  -0.23812  -0.22396  -0.21892
 Alpha virt. eigenvalues --   -0.20493  -0.19274  -0.18878  -0.17999  -0.14991
 Alpha virt. eigenvalues --   -0.14466  -0.13791  -0.13620  -0.12837  -0.11867
 Alpha virt. eigenvalues --   -0.10118  -0.08196  -0.07746  -0.05878  -0.05796
 Alpha virt. eigenvalues --   -0.04095  -0.03128  -0.02815  -0.00759  -0.00304
 Alpha virt. eigenvalues --    0.01192   0.01589   0.04406   0.05245   0.06669
 Alpha virt. eigenvalues --    0.07439   0.10601   0.11591   0.14848   0.15791
 Alpha virt. eigenvalues --    0.18568   0.18741   0.21224   0.24327   0.25599
 Alpha virt. eigenvalues --    0.25736   0.32788   0.33963   0.34600   0.39771
 Alpha virt. eigenvalues --    0.40727   0.42441   0.45050   0.47450   0.48954
 Alpha virt. eigenvalues --    0.49002   0.51444   0.52544   0.54112   0.55578
 Alpha virt. eigenvalues --    0.55744   0.60482   0.60516   0.61102   0.66027
 Alpha virt. eigenvalues --    0.70988   0.83997   0.87618   0.91362   0.97279
 Alpha virt. eigenvalues --    0.98943   1.02522   1.07094   1.10445   1.11541
 Alpha virt. eigenvalues --    1.15656   1.17581   1.21019   1.21448   1.24263
 Alpha virt. eigenvalues --    1.26863   1.35960   1.37611   1.39546   1.42183
 Alpha virt. eigenvalues --    1.42718   1.48754   1.50394   1.56365   1.60111
 Alpha virt. eigenvalues --    1.61521   1.63002   1.69879   1.75821   1.81864
 Alpha virt. eigenvalues --    1.82910   1.87980   2.03347   2.08945   2.16684
 Alpha virt. eigenvalues --    2.28229   2.30281   2.33661   2.34192   2.35693
 Alpha virt. eigenvalues --    2.49711   2.54520   2.60234   2.66470   2.67359
 Alpha virt. eigenvalues --    2.76292   2.87631   2.92755   2.98357   3.07934
 Alpha virt. eigenvalues --    3.26779   3.33501   3.35326   3.47093   3.57509
 Alpha virt. eigenvalues --    3.86366   3.94365   4.09816   4.10729   4.14265
 Alpha virt. eigenvalues --    4.14554   4.31401   4.40956   4.46849   4.53311
 Alpha virt. eigenvalues --    4.77319   4.85734   5.34216   6.45918   6.50569
 Alpha virt. eigenvalues --    6.57144   6.60526   6.61865   6.75419   6.86649
 Alpha virt. eigenvalues --    6.94659   7.16602   7.33314   8.07521   8.22456
 Alpha virt. eigenvalues --   16.75784  16.90542  17.00607  17.16598  17.40895
 Alpha virt. eigenvalues --   17.47799  23.35572  24.75502 188.84663 189.09564
  Beta  occ. eigenvalues --  -89.44800 -89.39759 -10.78995 -10.77726  -8.52546
  Beta  occ. eigenvalues --   -8.47853  -6.48606  -6.48592  -6.48260  -6.44100
  Beta  occ. eigenvalues --   -6.43701  -6.43626  -1.43180  -1.29649  -1.11852
  Beta  occ. eigenvalues --   -0.99992  -0.93457  -0.89761  -0.88412  -0.82990
  Beta  occ. eigenvalues --   -0.77589
  Beta virt. eigenvalues --   -0.63203  -0.62003  -0.53083  -0.49898  -0.41431
  Beta virt. eigenvalues --   -0.39442  -0.36678  -0.32440  -0.26614  -0.26586
  Beta virt. eigenvalues --   -0.26469  -0.25821  -0.24601  -0.23213  -0.22269
  Beta virt. eigenvalues --   -0.21557  -0.20313  -0.18581  -0.18415  -0.17912
  Beta virt. eigenvalues --   -0.14723  -0.14217  -0.13513  -0.13321  -0.12418
  Beta virt. eigenvalues --   -0.11720  -0.09608  -0.08006  -0.07588  -0.05618
  Beta virt. eigenvalues --   -0.05451  -0.03605  -0.02991  -0.02687  -0.00552
  Beta virt. eigenvalues --   -0.00272   0.01323   0.02128   0.05038   0.06140
  Beta virt. eigenvalues --    0.06895   0.07822   0.10901   0.12619   0.15046
  Beta virt. eigenvalues --    0.16422   0.18988   0.20756   0.21791   0.24692
  Beta virt. eigenvalues --    0.25812   0.26728   0.32984   0.34438   0.35059
  Beta virt. eigenvalues --    0.40192   0.40810   0.43081   0.45970   0.47762
  Beta virt. eigenvalues --    0.49198   0.49275   0.51625   0.53126   0.54375
  Beta virt. eigenvalues --    0.56020   0.56045   0.60608   0.60628   0.61782
  Beta virt. eigenvalues --    0.66147   0.71490   0.84493   0.88900   0.92841
  Beta virt. eigenvalues --    0.98145   0.99380   1.03918   1.08258   1.11352
  Beta virt. eigenvalues --    1.12600   1.16535   1.17848   1.21522   1.21601
  Beta virt. eigenvalues --    1.25067   1.27501   1.36294   1.40015   1.40756
  Beta virt. eigenvalues --    1.42869   1.44286   1.50147   1.51147   1.57962
  Beta virt. eigenvalues --    1.61337   1.63577   1.64062   1.72078   1.76020
  Beta virt. eigenvalues --    1.82457   1.84093   1.88416   2.04244   2.09937
  Beta virt. eigenvalues --    2.17872   2.28939   2.30793   2.34818   2.35429
  Beta virt. eigenvalues --    2.36539   2.50619   2.56564   2.60917   2.68430
  Beta virt. eigenvalues --    2.69003   2.78353   2.90031   2.94786   3.00243
  Beta virt. eigenvalues --    3.09310   3.28725   3.35491   3.36000   3.47262
  Beta virt. eigenvalues --    3.57662   3.87857   3.95846   4.10123   4.12009
  Beta virt. eigenvalues --    4.14696   4.15020   4.31570   4.41086   4.47065
  Beta virt. eigenvalues --    4.53632   4.77561   4.86356   5.34433   6.46655
  Beta virt. eigenvalues --    6.51207   6.59867   6.61604   6.65961   6.77801
  Beta virt. eigenvalues --    6.90059   6.96565   7.18179   7.35490   8.08741
  Beta virt. eigenvalues --    8.22639  16.75759  16.90590  17.00887  17.17095
  Beta virt. eigenvalues --   17.40983  17.47824  23.36554  24.76541 188.84786
  Beta virt. eigenvalues --  189.09588
          Condensed to atoms (all electrons):
               1          2          3          4          5
     1  S   14.882165  -0.099190   0.270201   0.345473  -0.012008
     2  S   -0.099190  15.250584  -0.275974   0.485044   0.294379
     3  C    0.270201  -0.275974   7.155447  -1.580782   0.017252
     4  C    0.345473   0.485044  -1.580782   6.368371   0.022166
     5  H   -0.012008   0.294379   0.017252   0.022166   0.410311
          Atomic-Atomic Spin Densities.
               1          2          3          4          5
     1  S    0.209964   0.018113  -0.029791  -0.005833  -0.000227
     2  S    0.018113   0.040631   0.019962  -0.026458  -0.003107
     3  C   -0.029791   0.019962   1.007696  -0.242210  -0.001409
     4  C   -0.005833  -0.026458  -0.242210   0.268598   0.004944
     5  H   -0.000227  -0.003107  -0.001409   0.004944   0.005146
 Mulliken charges and spin densities:
               1          2
     1  S    0.613359   0.192225
     2  S    0.345157   0.049140
     3  C    0.413855   0.754247
     4  C    0.359727  -0.000960
     5  H    0.267901   0.005347
 Sum of Mulliken charges =   2.00000   1.00000
 Mulliken charges and spin densities with hydrogens summed into heavy atoms:
               1          2
     1  S    0.613359   0.192225
     2  S    0.613058   0.054488
     3  C    0.413855   0.754247
     4  C    0.359727  -0.000960
 APT charges:
               1
     1  S    0.437124
     2  S    0.453923
     3  C    0.430618
     4  C    0.443409
     5  H    0.234927
 Sum of APT charges =   2.00000
 APT charges with hydrogens summed into heavy atoms:
               1
     1  S    0.437124
     2  S    0.688850
     3  C    0.430618
     4  C    0.443409
 Electronic spatial extent (au):  <R**2>=            436.9654
 Charge=              2.0000 electrons
 Dipole moment (field-independent basis, Debye):
    X=              0.6141    Y=             -1.1698    Z=              0.0000  Tot=              1.3212
 Quadrupole moment (field-independent basis, Debye-Ang):
   XX=             -7.4916   YY=            -18.6508   ZZ=            -30.1491
   XY=              9.2061   XZ=             -0.0000   YZ=             -0.0000
 Traceless Quadrupole moment (field-independent basis, Debye-Ang):
   XX=             11.2722   YY=              0.1130   ZZ=            -11.3853
   XY=              9.2061   XZ=             -0.0000   YZ=             -0.0000
 Octapole moment (field-independent basis, Debye-Ang**2):
  XXX=             20.0435  YYY=             -9.7705  ZZZ=              0.0000  XYY=             -2.5854
  XXY=              0.4243  XXZ=             -0.0000  XZZ=              0.2098  YZZ=             -1.3551
  YYZ=              0.0000  XYZ=              0.0000
 Hexadecapole moment (field-independent basis, Debye-Ang**3):
 XXXX=           -218.4684 YYYY=           -159.6430 ZZZZ=            -30.9042 XXXY=            -54.7917
 XXXZ=              0.0000 YYYX=            -56.5979 YYYZ=              0.0000 ZZZX=              0.0000
 ZZZY=              0.0000 XXYY=            -57.2163 XXZZ=            -53.8653 YYZZ=            -34.3785
 XXYZ=              0.0000 YYXZ=              0.0000 ZZXY=            -24.6253
 N-N= 1.719561910136D+02 E-N=-2.392114736706D+03  KE= 8.708380424473D+02
 Symmetry A'   KE= 7.936994453447D+02
 Symmetry A"   KE= 7.713859710259D+01
  Exact polarizability:  68.933  18.009  52.795   0.000   0.000  28.582
 Approx polarizability: 150.048  56.057 135.412  -0.000  -0.000  47.400
                          Isotropic Fermi Contact Couplings
        Atom                 a.u.       MegaHertz       Gauss      10(-4) cm-1
     1  S(33)              0.04580      15.73176       5.61348       5.24755
     2  S(33)              0.00465       1.59783       0.57014       0.53298
     3  C(13)              0.71998     809.39532     288.81237     269.98522
     4  C(13)              0.02740      30.79793      10.98947      10.27308
     5  H(1)               0.00350      15.65974       5.58778       5.22353
 --------------------------------------------------------
       Center         ----  Spin Dipole Couplings  ----
                      3XX-RR        3YY-RR        3ZZ-RR
 --------------------------------------------------------
     1   Atom        1.566082     -0.561479     -1.004603
     2   Atom       -0.074971     -0.015645      0.090616
     3   Atom        0.353857     -0.004792     -0.349065
     4   Atom        0.096745     -0.008152     -0.088593
     5   Atom        0.004590     -0.001261     -0.003328
 --------------------------------------------------------
                        XY            XZ            YZ
 --------------------------------------------------------
     1   Atom       -0.271479      0.000000     -0.000000
     2   Atom       -0.003724     -0.000000      0.000000
     3   Atom       -0.579298     -0.000000      0.000000
     4   Atom       -0.117787     -0.000000     -0.000000
     5   Atom       -0.001296     -0.000000     -0.000000
 --------------------------------------------------------


 ---------------------------------------------------------------------------------
              Anisotropic Spin Dipole Couplings in Principal Axis System
 ---------------------------------------------------------------------------------

       Atom             a.u.   MegaHertz   Gauss  10(-4) cm-1        Axes

              Baa    -1.0046   -41.188   -14.697   -13.739  0.0000  0.0000  1.0000
     1 S(33)  Bbb    -0.5956   -24.418    -8.713    -8.145  0.1246  0.9922  0.0000
              Bcc     1.6002    65.606    23.410    21.884  0.9922 -0.1246  0.0000
 
              Baa    -0.0752    -3.083    -1.100    -1.028  0.9981  0.0624  0.0000
     2 S(33)  Bbb    -0.0154    -0.632    -0.225    -0.211 -0.0624  0.9981  0.0000
              Bcc     0.0906     3.715     1.326     1.239  0.0000  0.0000  1.0000
 
              Baa    -0.4319   -57.955   -20.680   -19.332  0.5934  0.8049  0.0000
     3 C(13)  Bbb    -0.3491   -46.841   -16.714   -15.625  0.0000  0.0000  1.0000
              Bcc     0.7810   104.796    37.394    34.956  0.8049 -0.5934  0.0000
 
              Baa    -0.0886   -11.888    -4.242    -3.965  0.0000  0.0000  1.0000
     4 C(13)  Bbb    -0.0846   -11.358    -4.053    -3.789  0.5446  0.8387 -0.0000
              Bcc     0.1732    23.246     8.295     7.754  0.8387 -0.5446 -0.0000
 
              Baa    -0.0033    -1.776    -0.634    -0.592  0.0000  0.0000  1.0000
     5 H(1)   Bbb    -0.0015    -0.819    -0.292    -0.273  0.2070  0.9783 -0.0000
              Bcc     0.0049     2.595     0.926     0.866  0.9783 -0.2070 -0.0000
 

 ---------------------------------------------------------------------------------

 No NMR shielding tensors so no spin-rotation constants.
 Leave Link  601 at Wed Aug  3 23:02:55 2016, MaxMem=    33554432 cpu:         1.4
 (Enter /home/proyectos/fulerenos/M3C-v2.0/M3C-deps_CCC/g09-AM64L-G09RevC.01/l701.exe)
 Compute integral second derivatives.
 ... and contract with generalized density number  0.
 Leave Link  701 at Wed Aug  3 23:02:55 2016, MaxMem=    33554432 cpu:         1.0
 (Enter /home/proyectos/fulerenos/M3C-v2.0/M3C-deps_CCC/g09-AM64L-G09RevC.01/l702.exe)
 L702 exits ... SP integral derivatives will be done elsewhere.
 Leave Link  702 at Wed Aug  3 23:02:55 2016, MaxMem=    33554432 cpu:         0.1
 (Enter /home/proyectos/fulerenos/M3C-v2.0/M3C-deps_CCC/g09-AM64L-G09RevC.01/l703.exe)
 Compute integral second derivatives, UseDBF=F ICtDFT=           0.
 Integral derivatives from FoFJK, PRISM(SPDF).
 Calling FoFJK, ICntrl=    100127 FMM=F ISym2X=1 I1Cent= 0 IOpClX= 1 NMat=1 NMatS=1 NMatT=0.
 FoFJK:  IHMeth= 1 ICntrl=  100127 DoSepK=F KAlg= 0 I1Cent=   0 FoldK=F
 IRaf=         0 NMat=   1 IRICut=       1 DoRegI=T DoRafI=F ISym2E= 1.
 FoFCou: FMM=F IPFlag=           0 FMFlag=      100000 FMFlg1=         800
         NFxFlg=           0 DoJE=F BraDBF=F KetDBF=F FulRan=T
         wScrn=  0.000000 ICntrl=  100127 IOpCl=  1 I1Cent=           0 NGrid=           0
         NMat0=    1 NMatS0=      1 NMatT0=    0 NMatD0=    1 NMtDS0=    0 NMtDT0=    0
 Petite list used in FoFCou.
 Leave Link  703 at Wed Aug  3 23:03:25 2016, MaxMem=    33554432 cpu:       118.6
 (Enter /home/proyectos/fulerenos/M3C-v2.0/M3C-deps_CCC/g09-AM64L-G09RevC.01/l716.exe)
 Dipole        = 2.41601160D-01-4.60249384D-01 3.57860006D-17
 Polarizability= 6.89332706D+01 1.80086865D+01 5.27947477D+01
                 1.12796082D-04 7.61838714D-05 2.85819893D+01
 Full mass-weighted force constant matrix:
 Low frequencies ---   -5.4866   -0.0035   -0.0033   -0.0029    2.8486    7.0995
 Low frequencies ---  267.6581  383.0140  408.8742
 Diagonal vibrational polarizability:
       11.4255710       1.1028672       2.6050123
 Harmonic frequencies (cm**-1), IR intensities (KM/Mole), Raman scattering
 activities (A**4/AMU), depolarization ratios for plane and unpolarized
 incident light, reduced masses (AMU), force constants (mDyne/A),
 and normal coordinates:
                      1                      2                      3
                     A'                     A"                     A'
 Frequencies --    267.6581               383.0140               408.8742
 Red. masses --      8.8109                 6.7431                10.5130
 Frc consts  --      0.3719                 0.5828                 1.0355
 IR Inten    --      8.1010                 0.1454                24.3688
  Atom  AN      X      Y      Z        X      Y      Z        X      Y      Z
     1  16     0.31   0.13  -0.00     0.00   0.00  -0.07    -0.14  -0.21  -0.00
     2  16    -0.08  -0.22  -0.00    -0.00  -0.00  -0.14     0.25   0.05  -0.00
     3   6    -0.31   0.04  -0.00     0.00   0.00  -0.15    -0.13  -0.21  -0.00
     4   6    -0.27   0.25   0.00     0.00  -0.00   0.66    -0.12   0.65   0.00
     5   1    -0.57  -0.53  -0.00     0.00   0.00   0.72    -0.45  -0.40   0.00
                      4                      5                      6
                     A"                     A'                     A'
 Frequencies --    490.1688               788.5252               964.9838
 Red. masses --      1.2397                 7.6036                 1.2670
 Frc consts  --      0.1755                 2.7855                 0.6951
 IR Inten    --     23.0196                41.0342                86.9117
  Atom  AN      X      Y      Z        X      Y      Z        X      Y      Z
     1  16     0.00   0.00  -0.02    -0.00  -0.06  -0.00    -0.00   0.01  -0.00
     2  16    -0.00  -0.00  -0.02    -0.24  -0.08   0.00    -0.03  -0.05  -0.00
     3   6     0.00   0.00   0.11     0.52   0.10   0.00    -0.00  -0.04  -0.00
     4   6     0.00  -0.00  -0.09     0.16   0.32  -0.00     0.01   0.11   0.00
     5   1     0.00   0.00   0.99    -0.63  -0.35   0.00     0.86   0.49  -0.00
                      7                      8                      9
                     A'                     A'                     A'
 Frequencies --   1028.7300              1491.5003              2491.2074
 Red. masses --     10.8204                11.4780                 1.0396
 Frc consts  --      6.7468                15.0440                 3.8015
 IR Inten    --      7.8369                28.7555               167.8300
  Atom  AN      X      Y      Z        X      Y      Z        X      Y      Z
     1  16     0.05  -0.29   0.00    -0.01  -0.06  -0.00    -0.00  -0.00   0.00
     2  16     0.03  -0.00   0.00    -0.09  -0.03  -0.00     0.02  -0.03   0.00
     3   6    -0.06   0.77   0.00    -0.51   0.14  -0.00    -0.00  -0.00   0.00
     4   6    -0.21  -0.01  -0.00     0.79   0.11   0.00     0.00   0.00  -0.00
     5   1     0.45   0.27   0.00    -0.21  -0.16  -0.00    -0.52   0.85   0.00

 -------------------
 - Thermochemistry -
 -------------------
 Temperature   298.150 Kelvin.  Pressure   1.00000 Atm.
 Atom     1 has atomic number 16 and mass  31.97207
 Atom     2 has atomic number 16 and mass  31.97207
 Atom     3 has atomic number  6 and mass  12.00000
 Atom     4 has atomic number  6 and mass  12.00000
 Atom     5 has atomic number  1 and mass   1.00783
 Molecular mass:    88.95197 amu.
 Principal axes and moments of inertia in atomic units:
                           1         2         3
     Eigenvalues --    77.51443 694.55316 772.06759
           X            0.80904  -0.58775   0.00000
           Y            0.58775   0.80904   0.00000
           Z           -0.00000  -0.00000   1.00000
 This molecule is an asymmetric top.
 Rotational symmetry number  1.
 Rotational temperatures (Kelvin)      1.11739     0.12470     0.11218
 Rotational constants (GHZ):          23.28265     2.59842     2.33754
 Zero-point vibrational energy      49732.7 (Joules/Mol)
                                   11.88641 (Kcal/Mol)
 Warning -- explicit consideration of   4 degrees of freedom as
           vibrations may cause significant error
 Vibrational temperatures:    385.10   551.07   588.28   705.24  1134.51
          (Kelvin)           1388.39  1480.11  2145.93  3584.29
 
 Zero-point correction=                           0.018942 (Hartree/Particle)
 Thermal correction to Energy=                    0.023258
 Thermal correction to Enthalpy=                  0.024202
 Thermal correction to Gibbs Free Energy=        -0.009368
 Sum of electronic and zero-point Energies=           -872.248024
 Sum of electronic and thermal Energies=              -872.243708
 Sum of electronic and thermal Enthalpies=            -872.242764
 Sum of electronic and thermal Free Energies=         -872.276333
 
                     E (Thermal)             CV                S
                      KCal/Mol        Cal/Mol-Kelvin    Cal/Mol-Kelvin
 Total                   14.594             13.436             70.652
 Electronic               0.000              0.000              1.377
 Translational            0.889              2.981             39.369
 Rotational               0.889              2.981             25.233
 Vibrational             12.817              7.474              4.672
 Vibration     1          0.673              1.733              1.611
 Vibration     2          0.752              1.506              1.027
 Vibration     3          0.773              1.451              0.931
 Vibration     4          0.846              1.272              0.683
                       Q            Log10(Q)             Ln(Q)
 Total Bot       0.203596D+05          4.308769          9.921307
 Total V=0       0.105088D+14         13.021554         29.983237
 Vib (Bot)       0.422992D-08         -8.373668        -19.281082
 Vib (Bot)    1  0.722905D+00         -0.140919         -0.324477
 Vib (Bot)    2  0.471063D+00         -0.326921         -0.752764
 Vib (Bot)    3  0.433070D+00         -0.363442         -0.836856
 Vib (Bot)    4  0.338213D+00         -0.470809         -1.084079
 Vib (V=0)       0.218332D+01          0.339118          0.780847
 Vib (V=0)    1  0.137897D+01          0.139555          0.321338
 Vib (V=0)    2  0.118695D+01          0.074432          0.171387
 Vib (V=0)    3  0.116148D+01          0.065010          0.149691
 Vib (V=0)    4  0.110365D+01          0.042830          0.098619
 Electronic      0.200000D+01          0.301030          0.693147
 Translational   0.329753D+08          7.518189         17.311269
 Rotational      0.729824D+05          4.863218         11.197973
 
                                                              b3lyp opt
                                                             IR Spectrum
 
     2                                                  1                       1                                                    
     4                                                  4                       0  9        7               4   43     2             
     9                                                  9                       2  6        8               9   08     6             
     1                                                  2                       9  5        9               0   93     8             
 
     X                                                  X                       X  X        X               X   XX     X             
     X                                                  X                          X        X               X   X                    
     X                                                  X                          X        X               X   X                    
     X                                                                             X        X                                        
     X                                                                             X        X                                        
     X                                                                             X                                                 
     X                                                                             X                                                 
     X                                                                             X                                                 
     X                                                                             X                                                 
     X                                                                             X                                                 
     X                                                                                                                               
     X                                                                                                                               
     X                                                                                                                               
     X                                                                                                                               
     X                                                                                                                               
     X                                                                                                                               
     X                                                                                                                               
     X                                                                                                                               
     X                                                                                                                               
     X                                                                                                                               
 
 ***** Axes restored to original set *****
 -------------------------------------------------------------------
 Center     Atomic                   Forces (Hartrees/Bohr)
 Number     Number              X              Y              Z
 -------------------------------------------------------------------
      1       16          -0.000032647    0.000060604    0.000007776
      2       16           0.000081512    0.000056821    0.000051389
      3        6           0.000035183   -0.000047572   -0.000002345
      4        6          -0.000089249   -0.000073655   -0.000060159
      5        1           0.000005202    0.000003802    0.000003339
 -------------------------------------------------------------------
 Cartesian Forces:  Max     0.000089249 RMS     0.000050254
 Z-matrix is all fixed cartesians, so copy forces.
 Force constants in Cartesian coordinates: 
                1             2             3             4             5 
      1  0.240367D+00
      2 -0.175852D+00  0.198505D+00
      3  0.320525D-01 -0.394282D-02  0.180428D-01
      4 -0.640838D-02 -0.184533D-01 -0.133285D-01  0.308072D+00
      5  0.215415D-02  0.145558D-02 -0.257609D-02  0.462082D-02  0.274137D+00
      6 -0.631825D-02 -0.106813D-01  0.540021D-02  0.114762D+00  0.881728D-01
      7 -0.154674D+00  0.176185D+00 -0.192087D-03 -0.200181D-01 -0.232919D-01
      8  0.190136D+00 -0.191639D+00  0.102045D-01 -0.159215D-02 -0.479877D-02
      9  0.455391D-02  0.471705D-02  0.159385D-02 -0.834271D-02 -0.107310D-01
     10 -0.778438D-01  0.177759D-01 -0.202282D-01 -0.218217D+00 -0.819158D-01
     11 -0.186918D-01 -0.948467D-02 -0.682294D-02 -0.608044D-01 -0.879976D-01
     12 -0.326337D-01  0.752029D-02 -0.213161D-01 -0.971672D-01 -0.540712D-01
     13 -0.144014D-02  0.344207D-03  0.169627D-02 -0.634291D-01  0.984327D-01
     14  0.225274D-02  0.116292D-02  0.313738D-02  0.762290D-01 -0.182796D+00
     15  0.234550D-02  0.238673D-02 -0.372077D-02  0.407598D-02 -0.207945D-01
                6             7             8             9            10 
      6  0.954171D-01
      7 -0.157247D-01  0.264647D+00
      8 -0.219617D-02 -0.344388D-01  0.416265D+00
      9 -0.711544D-02  0.865950D-01  0.123062D+00  0.906143D-01
     10 -0.104349D+00 -0.888866D-01 -0.153731D+00 -0.789669D-01  0.377589D+00
     11 -0.457678D-01 -0.120577D+00 -0.220442D+00 -0.115245D+00  0.225867D+00
     12 -0.803700D-01 -0.676883D-01 -0.128285D+00 -0.913390D-01  0.202269D+00
     13  0.116292D-01 -0.106825D-02 -0.374098D-03 -0.383934D-02  0.735863D-02
     14 -0.295275D-01  0.212270D-02  0.614902D-03 -0.180314D-02 -0.799564D-02
     15 -0.133319D-01 -0.298998D-02 -0.278517D-02  0.624626D-02  0.127488D-02
               11            12            13            14            15 
     11  0.329117D+00
     12  0.180836D+00  0.199745D+00
     13 -0.257940D-01 -0.477978D-02  0.585789D-01
     14 -0.111924D-01 -0.600030D-02 -0.726088D-01  0.192211D+00
     15 -0.130006D-01 -0.671938D-02 -0.470638D-02  0.341936D-01  0.175257D-01
 Leave Link  716 at Wed Aug  3 23:03:25 2016, MaxMem=    33554432 cpu:         0.1
 (Enter /home/proyectos/fulerenos/M3C-v2.0/M3C-deps_CCC/g09-AM64L-G09RevC.01/l103.exe)

 GradGradGradGradGradGradGradGradGradGradGradGradGradGradGradGradGradGrad
 Berny optimization.
 Search for a local minimum.
 Step number   1 out of a maximum of    2
 All quantities printed in internal units (Hartrees-Bohrs-Radians)
 Second derivative matrix not updated -- analytic derivatives used.
 The second derivative matrix:
                          X1        Y1        Z1        X2        Y2
           X1           0.24037
           Y1          -0.17585   0.19850
           Z1           0.03205  -0.00394   0.01804
           X2          -0.00641  -0.01845  -0.01333   0.30807
           Y2           0.00215   0.00146  -0.00258   0.00462   0.27414
           Z2          -0.00632  -0.01068   0.00540   0.11476   0.08817
           X3          -0.15467   0.17618  -0.00019  -0.02002  -0.02329
           Y3           0.19014  -0.19164   0.01020  -0.00159  -0.00480
           Z3           0.00455   0.00472   0.00159  -0.00834  -0.01073
           X4          -0.07784   0.01778  -0.02023  -0.21822  -0.08192
           Y4          -0.01869  -0.00948  -0.00682  -0.06080  -0.08800
           Z4          -0.03263   0.00752  -0.02132  -0.09717  -0.05407
           X5          -0.00144   0.00034   0.00170  -0.06343   0.09843
           Y5           0.00225   0.00116   0.00314   0.07623  -0.18280
           Z5           0.00235   0.00239  -0.00372   0.00408  -0.02079
                          Z2        X3        Y3        Z3        X4
           Z2           0.09542
           X3          -0.01572   0.26465
           Y3          -0.00220  -0.03444   0.41626
           Z3          -0.00712   0.08660   0.12306   0.09061
           X4          -0.10435  -0.08889  -0.15373  -0.07897   0.37759
           Y4          -0.04577  -0.12058  -0.22044  -0.11524   0.22587
           Z4          -0.08037  -0.06769  -0.12828  -0.09134   0.20227
           X5           0.01163  -0.00107  -0.00037  -0.00384   0.00736
           Y5          -0.02953   0.00212   0.00061  -0.00180  -0.00800
           Z5          -0.01333  -0.00299  -0.00279   0.00625   0.00127
                          Y4        Z4        X5        Y5        Z5
           Y4           0.32912
           Z4           0.18084   0.19974
           X5          -0.02579  -0.00478   0.05858
           Y5          -0.01119  -0.00600  -0.07261   0.19221
           Z5          -0.01300  -0.00672  -0.00471   0.03419   0.01753
 ITU=  0
     Eigenvalues ---    0.01886   0.02118   0.07707   0.09909   0.11984
     Eigenvalues ---    0.37939   0.43780   0.67137   1.07242
 Angle between quadratic step and forces=  59.31 degrees.
 ClnCor:  largest displacement from symmetrization is 1.73D-10 for atom     5.
 Linear search not attempted -- first point.
 ClnCor:  largest displacement from symmetrization is 2.23D-15 for atom     2.
 B after Tr=     0.000054    0.000044    0.000036
         Rot=    1.000000   -0.000003   -0.000003    0.000009 Ang=  -0.00 deg.
 Variable       Old X    -DE/DX   Delta X   Delta X   Delta X     New X
                                 (Linear)    (Quad)   (Total)
    X1       -3.41614  -0.00003   0.00000   0.00011   0.00016  -3.41598
    Y1       -0.24691   0.00006   0.00000   0.00022   0.00033  -0.24658
    Z1       -0.82963   0.00001   0.00000   0.00012   0.00017  -0.82945
    X2        2.34750   0.00008   0.00000   0.00004   0.00012   2.34762
    Y2        0.69811   0.00006   0.00000   0.00017   0.00016   0.69827
    Z2        1.75876   0.00005   0.00000   0.00008   0.00010   1.75886
    X3       -1.32153   0.00004   0.00000  -0.00012  -0.00011  -1.32164
    Y3       -2.50405  -0.00005   0.00000  -0.00028  -0.00021  -2.50425
    Z3       -0.77362  -0.00000   0.00000  -0.00014  -0.00011  -0.77374
    X4       -0.10387  -0.00009   0.00000   0.00000   0.00005  -0.10383
    Y4       -0.51979  -0.00007   0.00000  -0.00038  -0.00034  -0.52012
    Z4        0.38030  -0.00006   0.00000  -0.00013  -0.00010   0.38021
    X5        1.36716   0.00001   0.00000  -0.00033  -0.00021   1.36695
    Y5        3.05978   0.00000   0.00000   0.00005   0.00005   3.05984
    Z5        2.17658   0.00000   0.00000  -0.00011  -0.00007   2.17651
         Item               Value     Threshold  Converged?
 Maximum Force            0.000089     0.000450     YES
 RMS     Force            0.000050     0.000300     YES
 Maximum Displacement     0.000336     0.001800     YES
 RMS     Displacement     0.000174     0.001200     YES
 Predicted change in Energy=-3.618836D-08
 Optimization completed.
    -- Stationary point found.
 GradGradGradGradGradGradGradGradGradGradGradGradGradGradGradGradGradGrad

 Leave Link  103 at Wed Aug  3 23:03:25 2016, MaxMem=    33554432 cpu:         0.1
 (Enter /home/proyectos/fulerenos/M3C-v2.0/M3C-deps_CCC/g09-AM64L-G09RevC.01/l9999.exe)
 1\1\GINC-DEPAZ29\Freq\UB3LYP\6-311++G(3df,2p)\C2H1S2(2+,2)\NAGUIRRE\03
 -Aug-2016\0\\#p b3lyp/6-311++G(3df,2p) freq\\b3lyp opt\\2,2\S,-1.80774
 2,-0.130658,-0.439019\S,1.242244,0.369423,0.930697\C,-0.699321999,-1.3
 25085619,-0.409383585\C,-0.054967782,-0.275059975,0.2012468399\H,0.723
 470379,1.619168123,1.151794947\\Version=EM64L-G09RevE.01\State=2-A'\HF
 =-872.2669659\S2=0.760248\S2-1=0.\S2A=0.75007\RMSD=4.392e-09\RMSF=5.02
 5e-05\ZeroPoint=0.0189422\Thermal=0.0232575\Dipole=-0.2337569,0.459784
 7,0.06447\DipoleDeriv=0.1392975,-0.1770375,-0.3180304,0.0765127,0.5235
 337,-0.0621762,-0.2317764,-0.1619011,0.6485405,0.4817637,-0.2036754,-0
 .1310578,-0.2810002,0.3623328,-0.2045749,-0.1573625,-0.1741616,0.51767
 15,0.2994087,-0.1635162,-0.0379469,0.066814,0.6931919,0.1755234,0.0404
 018,0.084931,0.2992524,1.0135649,0.5384329,0.5316372,0.0421883,-0.0097
 57,-0.0301203,0.3628295,0.1650594,0.3264185,0.0659652,0.0057962,-0.044
 602,0.0954853,0.4306986,0.121348,-0.0140924,0.0860723,0.208117\Polar=6
 8.7789727,7.9596301,42.9394731,18.5175608,8.0147132,38.5915617\PG=CS [
 SG(C2H1S2)]\NImag=0\\0.24036668,-0.17585156,0.19850474,0.03205254,-0.0
 0394282,0.01804280,-0.00640838,-0.01845326,-0.01332850,0.30807230,0.00
 215415,0.00145558,-0.00257609,0.00462082,0.27413686,-0.00631825,-0.010
 68126,0.00540021,0.11476240,0.08817278,0.09541711,-0.15467432,0.176184
 70,-0.00019209,-0.02001810,-0.02329193,-0.01572465,0.26464728,0.190136
 45,-0.19163858,0.01020447,-0.00159215,-0.00479877,-0.00219617,-0.03443
 884,0.41626488,0.00455391,0.00471705,0.00159385,-0.00834271,-0.0107309
 6,-0.00711544,0.08659505,0.12306171,0.09061434,-0.07784384,0.01777590,
 -0.02022823,-0.21821670,-0.08191576,-0.10434873,-0.08888661,-0.1537313
 6,-0.07896691,0.37758853,-0.01869179,-0.00948467,-0.00682294,-0.060804
 40,-0.08799759,-0.04576783,-0.12057664,-0.22044243,-0.11524466,0.22586
 686,0.32911705,-0.03263371,0.00752029,-0.02131608,-0.09716717,-0.05407
 121,-0.08037003,-0.06768833,-0.12828484,-0.09133901,0.20226899,0.18083
 606,0.19974451,-0.00144014,0.00034421,0.00169627,-0.06342912,0.0984327
 2,0.01162923,-0.00106825,-0.00037410,-0.00383934,0.00735863,-0.0257940
 3,-0.00477978,0.05857889,0.00225274,0.00116292,0.00313738,0.07622900,-
 0.18279609,-0.02952753,0.00212270,0.00061490,-0.00180314,-0.00799564,-
 0.01119236,-0.00600030,-0.07260880,0.19221062,0.00234550,0.00238673,-0
 .00372077,0.00407598,-0.02079452,-0.01333185,-0.00298998,-0.00278517,0
 .00624626,0.00127488,-0.01300063,-0.00671938,-0.00470638,0.03419359,0.
 01752574\\0.00003265,-0.00006060,-0.00000778,-0.00008151,-0.00005682,-
 0.00005139,-0.00003518,0.00004757,0.00000235,0.00008925,0.00007365,0.0
 0006016,-0.00000520,-0.00000380,-0.00000334\\\@


 ADAM SMITH SAID, "THE REAL PRICE OF ANYTHING IS THE TOIL AND TROUBLE
 OF ACQUIRING IT."  BUT IN ALL UNDERTAKINGS WITH NATURE WE SHOULD FIRST
 READ CAREFULLY THE SMALL PRINT IN THE CONTRACT. THIS MIGHT DISCLOSE
 THAT THE REAL PRICE IS TO BE PAID BY THOSE WHO INHERIT THE DEPLETION
 AND DESPOILATION THAT FOLLOWS.
                               -- E. R. HARRISON IN "COSMOLOGY" (1980)
 Job cpu time:       0 days  0 hours 13 minutes 40.2 seconds.
 File lengths (MBytes):  RWF=     42 Int=      0 D2E=      0 Chk=      4 Scr=      1
 Normal termination of Gaussian 09 at Wed Aug  3 23:03:25 2016.
