 Entering Gaussian System, Link 0=/home/proyectos/fulerenos/M3C-v2.0/M3C-deps_CCC/g09-AM64L-G09RevC.01/g09
 Initial command:
 /home/proyectos/fulerenos/M3C-v2.0/M3C-deps_CCC/g09-AM64L-G09RevC.01/l1.exe "/scratch/naguirre/gaussian/Gau-9880.inp" -scrdir="/scratch/naguirre/gaussian/"
 Entering Link 1 = /home/proyectos/fulerenos/M3C-v2.0/M3C-deps_CCC/g09-AM64L-G09RevC.01/l1.exe PID=      9888.
  
 Copyright (c) 1988,1990,1992,1993,1995,1998,2003,2009,2015,
            Gaussian, Inc.  All Rights Reserved.
  
 This is part of the Gaussian(R) 09 program.  It is based on
 the Gaussian(R) 03 system (copyright 2003, Gaussian, Inc.),
 the Gaussian(R) 98 system (copyright 1998, Gaussian, Inc.),
 the Gaussian(R) 94 system (copyright 1995, Gaussian, Inc.),
 the Gaussian 92(TM) system (copyright 1992, Gaussian, Inc.),
 the Gaussian 90(TM) system (copyright 1990, Gaussian, Inc.),
 the Gaussian 88(TM) system (copyright 1988, Gaussian, Inc.),
 the Gaussian 86(TM) system (copyright 1986, Carnegie Mellon
 University), and the Gaussian 82(TM) system (copyright 1983,
 Carnegie Mellon University). Gaussian is a federally registered
 trademark of Gaussian, Inc.
  
 This software contains proprietary and confidential information,
 including trade secrets, belonging to Gaussian, Inc.
  
 This software is provided under written license and may be
 used, copied, transmitted, or stored only in accord with that
 written license.
  
 The following legend is applicable only to US Government
 contracts under FAR:
  
                    RESTRICTED RIGHTS LEGEND
  
 Use, reproduction and disclosure by the US Government is
 subject to restrictions as set forth in subparagraphs (a)
 and (c) of the Commercial Computer Software - Restricted
 Rights clause in FAR 52.227-19.
  
 Gaussian, Inc.
 340 Quinnipiac St., Bldg. 40, Wallingford CT 06492
  
  
 ---------------------------------------------------------------
 Warning -- This program may not be used in any manner that
 competes with the business of Gaussian, Inc. or will provide
 assistance to any competitor of Gaussian, Inc.  The licensee
 of this program is prohibited from giving any competitor of
 Gaussian, Inc. access to this program.  By using this program,
 the user acknowledges that Gaussian, Inc. is engaged in the
 business of creating and licensing software in the field of
 computational chemistry and represents and warrants to the
 licensee that it is not a competitor of Gaussian, Inc. and that
 it will not use this program in any manner prohibited above.
 ---------------------------------------------------------------
  

 Cite this work as:
 Gaussian 09, Revision E.01,
 M. J. Frisch, G. W. Trucks, H. B. Schlegel, G. E. Scuseria, 
 M. A. Robb, J. R. Cheeseman, G. Scalmani, V. Barone, B. Mennucci, 
 G. A. Petersson, H. Nakatsuji, M. Caricato, X. Li, H. P. Hratchian, 
 A. F. Izmaylov, J. Bloino, G. Zheng, J. L. Sonnenberg, M. Hada, 
 M. Ehara, K. Toyota, R. Fukuda, J. Hasegawa, M. Ishida, T. Nakajima, 
 Y. Honda, O. Kitao, H. Nakai, T. Vreven, J. A. Montgomery, Jr., 
 J. E. Peralta, F. Ogliaro, M. Bearpark, J. J. Heyd, E. Brothers, 
 K. N. Kudin, V. N. Staroverov, T. Keith, R. Kobayashi, J. Normand, 
 K. Raghavachari, A. Rendell, J. C. Burant, S. S. Iyengar, J. Tomasi, 
 M. Cossi, N. Rega, J. M. Millam, M. Klene, J. E. Knox, J. B. Cross, 
 V. Bakken, C. Adamo, J. Jaramillo, R. Gomperts, R. E. Stratmann, 
 O. Yazyev, A. J. Austin, R. Cammi, C. Pomelli, J. W. Ochterski, 
 R. L. Martin, K. Morokuma, V. G. Zakrzewski, G. A. Voth, 
 P. Salvador, J. J. Dannenberg, S. Dapprich, A. D. Daniels, 
 O. Farkas, J. B. Foresman, J. V. Ortiz, J. Cioslowski, 
 and D. J. Fox, Gaussian, Inc., Wallingford CT, 2013.
 
 ******************************************
 Gaussian 09:  EM64L-G09RevE.01 30-Nov-2015
                 3-Aug-2016 
 ******************************************
 %NProcShared=4
 Will use up to    4 processors via shared memory.
 ------------------------------
 #p b3lyp/6-311++G(3df,2p) freq
 ------------------------------
 1/10=4,30=1,38=1/1,3;
 2/12=2,17=6,18=5,40=1/2;
 3/5=4,6=6,7=1216,11=2,16=1,25=1,30=1,71=2,74=-5,140=1/1,2,3;
 4//1;
 5/5=2,38=5,98=1/2;
 8/6=4,10=90,11=11/1;
 11/6=1,8=1,9=11,15=111,16=1/1,2,10;
 10/6=1/2;
 6/7=2,8=2,9=2,10=2,18=1,28=1/1;
 7/8=1,10=1,25=1/1,2,3,16;
 1/10=4,30=1/3;
 99//99;
 Leave Link    1 at Wed Aug  3 20:18:23 2016, MaxMem=           0 cpu:         0.3
 (Enter /home/proyectos/fulerenos/M3C-v2.0/M3C-deps_CCC/g09-AM64L-G09RevC.01/l101.exe)
 ---------
 b3lyp opt
 ---------
 Symbolic Z-matrix:
 Charge =  0 Multiplicity = 4
 S                     0.44759   0.20004  -0.87726 
 C                    -0.18543  -1.33584  -0.10409 
 C                    -0.74728  -0.09548   0.30224 
 H                     0.51677  -2.00452   0.39856 
 
 NAtoms=      4 NQM=        4 NQMF=       0 NMMI=      0 NMMIF=      0
                NMic=       0 NMicF=      0.
                    Isotopes and Nuclear Properties:
 (Nuclear quadrupole moments (NQMom) in fm**2, nuclear magnetic moments (NMagM)
  in nuclear magnetons)

  Atom         1           2           3           4
 IAtWgt=          32          12          12           1
 AtmWgt=  31.9720718  12.0000000  12.0000000   1.0078250
 NucSpn=           0           0           0           1
 AtZEff=   0.0000000   0.0000000   0.0000000   0.0000000
 NQMom=    0.0000000   0.0000000   0.0000000   0.0000000
 NMagM=    0.0000000   0.0000000   0.0000000   2.7928460
 AtZNuc=  16.0000000   6.0000000   6.0000000   1.0000000
 Leave Link  101 at Wed Aug  3 20:18:23 2016, MaxMem=    33554432 cpu:         0.2
 (Enter /home/proyectos/fulerenos/M3C-v2.0/M3C-deps_CCC/g09-AM64L-G09RevC.01/l103.exe)

 GradGradGradGradGradGradGradGradGradGradGradGradGradGradGradGradGradGrad
 Berny optimization.
 Initialization pass.
 Trust Radius=3.00D-01 FncErr=1.00D-07 GrdErr=1.00D-07
 Number of steps in this run=      2 maximum allowed number of steps=      2.
 GradGradGradGradGradGradGradGradGradGradGradGradGradGradGradGradGradGrad

 Leave Link  103 at Wed Aug  3 20:18:23 2016, MaxMem=    33554432 cpu:         0.1
 (Enter /home/proyectos/fulerenos/M3C-v2.0/M3C-deps_CCC/g09-AM64L-G09RevC.01/l202.exe)
                          Input orientation:                          
 ---------------------------------------------------------------------
 Center     Atomic      Atomic             Coordinates (Angstroms)
 Number     Number       Type             X           Y           Z
 ---------------------------------------------------------------------
      1         16           0        0.447585    0.200037   -0.877259
      2          6           0       -0.185427   -1.335844   -0.104091
      3          6           0       -0.747278   -0.095478    0.302243
      4          1           0        0.516765   -2.004521    0.398561
 ---------------------------------------------------------------------
                    Distance matrix (angstroms):
                    1          2          3          4
     1  S    0.000000
     2  C    1.832327   0.000000
     3  C    1.704773   1.421018   0.000000
     4  H    2.548054   1.092182   2.291621   0.000000
 Stoichiometry    C2HS(4)
 Framework group  C1[X(C2HS)]
 Deg. of freedom     6
 Full point group                 C1      NOp   1
 Largest Abelian subgroup         C1      NOp   1
 Largest concise Abelian subgroup C1      NOp   1
                         Standard orientation:                         
 ---------------------------------------------------------------------
 Center     Atomic      Atomic             Coordinates (Angstroms)
 Number     Number       Type             X           Y           Z
 ---------------------------------------------------------------------
      1         16           0        0.734740   -0.094951    0.004860
      2          6           0       -1.056352   -0.450393   -0.147050
      3          6           0       -0.650499    0.897931    0.044261
      4          1           0       -1.514730   -1.166020    0.538975
 ---------------------------------------------------------------------
 Rotational constants (GHZ):     35.6655143     13.0700740      9.7565164
 Leave Link  202 at Wed Aug  3 20:18:23 2016, MaxMem=    33554432 cpu:         0.0
 (Enter /home/proyectos/fulerenos/M3C-v2.0/M3C-deps_CCC/g09-AM64L-G09RevC.01/l301.exe)
 Standard basis: 6-311++G(3df,2p) (5D, 7F)
 Ernie: Thresh=  0.10000D-02 Tol=  0.10000D-05 Strict=F.
 There are   153 symmetry adapted cartesian basis functions of A   symmetry.
 There are   135 symmetry adapted basis functions of A   symmetry.
   135 basis functions,   200 primitive gaussians,   153 cartesian basis functions
    16 alpha electrons       13 beta electrons
       nuclear repulsion energy        78.5457421068 Hartrees.
 IExCor=  402 DFT=T Ex+Corr=B3LYP ExCW=0 ScaHFX=  0.200000
 ScaDFX=  0.800000  0.720000  1.000000  0.810000 ScalE2=  1.000000  1.000000
 IRadAn=      0 IRanWt=     -1 IRanGd=            0 ICorTp=0 IEmpDi=  4
 NAtoms=    4 NActive=    4 NUniq=    4 SFac= 1.00D+00 NAtFMM=   60 NAOKFM=F Big=F
 Integral buffers will be    131072 words long.
 Raffenetti 2 integral format.
 Two-electron integral symmetry is turned on.
 Leave Link  301 at Wed Aug  3 20:18:23 2016, MaxMem=    33554432 cpu:         0.2
 (Enter /home/proyectos/fulerenos/M3C-v2.0/M3C-deps_CCC/g09-AM64L-G09RevC.01/l302.exe)
 NPDir=0 NMtPBC=     1 NCelOv=     1 NCel=       1 NClECP=     1 NCelD=      1
         NCelK=      1 NCelE2=     1 NClLst=     1 CellRange=     0.0.
 One-electron integrals computed using PRISM.
 NBasis=   135 RedAO= T EigKep=  8.74D-05  NBF=   135
 NBsUse=   135 1.00D-06 EigRej= -1.00D+00 NBFU=   135
 Precomputing XC quadrature grid using
 IXCGrd= 4 IRadAn=           0 IRanWt=          -1 IRanGd=           0 AccXCQ= 0.00D+00.
 Generated NRdTot=       0 NPtTot=           0 NUsed=           0 NTot=          32
 NSgBfM=   153   153   153   153   153 MxSgAt=     4 MxSgA2=     4.
 Leave Link  302 at Wed Aug  3 20:18:23 2016, MaxMem=    33554432 cpu:         0.9
 (Enter /home/proyectos/fulerenos/M3C-v2.0/M3C-deps_CCC/g09-AM64L-G09RevC.01/l303.exe)
 DipDrv:  MaxL=1.
 Leave Link  303 at Wed Aug  3 20:18:24 2016, MaxMem=    33554432 cpu:         0.1
 (Enter /home/proyectos/fulerenos/M3C-v2.0/M3C-deps_CCC/g09-AM64L-G09RevC.01/l401.exe)
 ExpMin= 3.60D-02 ExpMax= 9.34D+04 ExpMxC= 3.17D+03 IAcc=3 IRadAn=         5 AccDes= 0.00D+00
 Harris functional with IExCor=  402 and IRadAn=       5 diagonalized for initial guess.
 HarFok:  IExCor=  402 AccDes= 0.00D+00 IRadAn=         5 IDoV= 1 UseB2=F ITyADJ=14
 ICtDFT=  3500011 ScaDFX=  1.000000  1.000000  1.000000  1.000000
 FoFCou: FMM=F IPFlag=           0 FMFlag=      100000 FMFlg1=           0
         NFxFlg=           0 DoJE=T BraDBF=F KetDBF=T FulRan=T
         wScrn=  0.000000 ICntrl=     500 IOpCl=  0 I1Cent=   200000004 NGrid=           0
         NMat0=    1 NMatS0=      1 NMatT0=    0 NMatD0=    1 NMtDS0=    0 NMtDT0=    0
 Petite list used in FoFCou.
 Harris En= -474.715834096640    
 JPrj=0 DoOrth=F DoCkMO=F.
 Initial guess <Sx>= 0.0000 <Sy>= 0.0000 <Sz>= 1.5000 <S**2>= 3.7500 S= 1.5000
 Leave Link  401 at Wed Aug  3 20:18:24 2016, MaxMem=    33554432 cpu:         3.0
 (Enter /home/proyectos/fulerenos/M3C-v2.0/M3C-deps_CCC/g09-AM64L-G09RevC.01/l502.exe)
 UHF open shell SCF:
 Using DIIS extrapolation, IDIIS=  1040.
 Integral symmetry usage will be decided dynamically.
 IVT=       90796 IEndB=       90796 NGot=    33554432 MDV=    33503839
 LenX=    33503839 LenY=    33479989
 Requested convergence on RMS density matrix=1.00D-08 within 128 cycles.
 Requested convergence on MAX density matrix=1.00D-06.
 Requested convergence on             energy=1.00D-06.
 No special actions if energy rises.
 Fock matrices will be formed incrementally for  20 cycles.

 Cycle   1  Pass 1  IDiag  1:
 FoFJK:  IHMeth= 1 ICntrl=       0 DoSepK=F KAlg= 0 I1Cent=   0 FoldK=F
 IRaf= 990000000 NMat=   1 IRICut=       1 DoRegI=T DoRafI=F ISym2E= 0.
 FoFCou: FMM=F IPFlag=           0 FMFlag=      100000 FMFlg1=           0
         NFxFlg=           0 DoJE=F BraDBF=F KetDBF=F FulRan=T
         wScrn=  0.000000 ICntrl=       0 IOpCl=  1 I1Cent=           0 NGrid=           0
         NMat0=    1 NMatS0=      1 NMatT0=    0 NMatD0=    1 NMtDS0=    0 NMtDT0=    0
 Symmetry not used in FoFCou.
 E= -474.641215664186    
 DIIS: error= 3.59D-02 at cycle   1 NSaved=   1.
 NSaved= 1 IEnMin= 1 EnMin= -474.641215664186     IErMin= 1 ErrMin= 3.59D-02
 ErrMax= 3.59D-02  0.00D+00 EMaxC= 1.00D-01 BMatC= 6.24D-01 BMatP= 6.24D-01
 IDIUse=3 WtCom= 6.41D-01 WtEn= 3.59D-01
 Coeff-Com:  0.100D+01
 Coeff-En:   0.100D+01
 Coeff:      0.100D+01
 Gap=     0.041 Goal=   None    Shift=    0.000
 Gap=     0.189 Goal=   None    Shift=    0.000
 GapD=    0.041 DampG=0.250 DampE=0.500 DampFc=0.2500 IDamp=-1.
 Damping current iteration by 2.50D-01
 RMSDP=9.78D-03 MaxDP=3.59D-01              OVMax= 5.71D-01

 Cycle   2  Pass 1  IDiag  1:
 RMSU=  2.41D-03    CP:  9.82D-01
 E= -474.697105693513     Delta-E=       -0.055890029327 Rises=F Damp=T
 DIIS: error= 8.03D-03 at cycle   2 NSaved=   2.
 NSaved= 2 IEnMin= 2 EnMin= -474.697105693513     IErMin= 2 ErrMin= 8.03D-03
 ErrMax= 8.03D-03  0.00D+00 EMaxC= 1.00D-01 BMatC= 7.29D-02 BMatP= 6.24D-01
 IDIUse=3 WtCom= 9.20D-01 WtEn= 8.03D-02
 Coeff-Com: -0.277D+00 0.128D+01
 Coeff-En:   0.113D+00 0.887D+00
 Coeff:     -0.245D+00 0.125D+01
 Gap=     0.143 Goal=   None    Shift=    0.000
 Gap=     0.221 Goal=   None    Shift=    0.000
 RMSDP=1.83D-03 MaxDP=5.78D-02 DE=-5.59D-02 OVMax= 4.06D-01

 Cycle   3  Pass 1  IDiag  1:
 RMSU=  1.74D-03    CP:  9.72D-01  7.81D-01
 E= -474.803854489901     Delta-E=       -0.106748796388 Rises=F Damp=F
 DIIS: error= 4.67D-03 at cycle   3 NSaved=   3.
 NSaved= 3 IEnMin= 3 EnMin= -474.803854489901     IErMin= 3 ErrMin= 4.67D-03
 ErrMax= 4.67D-03  0.00D+00 EMaxC= 1.00D-01 BMatC= 7.31D-03 BMatP= 7.29D-02
 IDIUse=3 WtCom= 9.53D-01 WtEn= 4.67D-02
 Coeff-Com: -0.105D+00 0.250D+00 0.855D+00
 Coeff-En:   0.000D+00 0.000D+00 0.100D+01
 Coeff:     -0.101D+00 0.238D+00 0.862D+00
 Gap=     0.135 Goal=   None    Shift=    0.000
 Gap=     0.168 Goal=   None    Shift=    0.000
 RMSDP=6.92D-04 MaxDP=3.97D-02 DE=-1.07D-01 OVMax= 5.00D-02

 Cycle   4  Pass 1  IDiag  1:
 RMSU=  5.21D-04    CP:  9.60D-01  8.61D-01  1.19D+00
 E= -474.806684612038     Delta-E=       -0.002830122136 Rises=F Damp=F
 DIIS: error= 1.62D-03 at cycle   4 NSaved=   4.
 NSaved= 4 IEnMin= 4 EnMin= -474.806684612038     IErMin= 4 ErrMin= 1.62D-03
 ErrMax= 1.62D-03  0.00D+00 EMaxC= 1.00D-01 BMatC= 2.52D-03 BMatP= 7.31D-03
 IDIUse=3 WtCom= 9.84D-01 WtEn= 1.62D-02
 Coeff-Com:  0.115D-01-0.354D-01 0.318D+00 0.706D+00
 Coeff-En:   0.000D+00 0.000D+00 0.000D+00 0.100D+01
 Coeff:      0.113D-01-0.349D-01 0.312D+00 0.711D+00
 Gap=     0.144 Goal=   None    Shift=    0.000
 Gap=     0.169 Goal=   None    Shift=    0.000
 RMSDP=3.23D-04 MaxDP=1.72D-02 DE=-2.83D-03 OVMax= 1.79D-02

 Cycle   5  Pass 1  IDiag  1:
 RMSU=  2.54D-04    CP:  9.59D-01  7.92D-01  1.25D+00  1.01D+00
 E= -474.807253522077     Delta-E=       -0.000568910040 Rises=F Damp=F
 DIIS: error= 1.21D-03 at cycle   5 NSaved=   5.
 NSaved= 5 IEnMin= 5 EnMin= -474.807253522077     IErMin= 5 ErrMin= 1.21D-03
 ErrMax= 1.21D-03  0.00D+00 EMaxC= 1.00D-01 BMatC= 1.04D-03 BMatP= 2.52D-03
 IDIUse=3 WtCom= 9.88D-01 WtEn= 1.21D-02
 Coeff-Com:  0.365D-01-0.776D-01 0.534D-01 0.428D+00 0.559D+00
 Coeff-En:   0.000D+00 0.000D+00 0.000D+00 0.431D-01 0.957D+00
 Coeff:      0.361D-01-0.767D-01 0.527D-01 0.424D+00 0.564D+00
 Gap=     0.144 Goal=   None    Shift=    0.000
 Gap=     0.172 Goal=   None    Shift=    0.000
 RMSDP=1.41D-04 MaxDP=4.44D-03 DE=-5.69D-04 OVMax= 1.10D-02

 Cycle   6  Pass 1  IDiag  1:
 RMSU=  1.13D-04    CP:  9.59D-01  7.73D-01  1.27D+00  1.09D+00  8.23D-01
 E= -474.807570213462     Delta-E=       -0.000316691385 Rises=F Damp=F
 DIIS: error= 4.09D-04 at cycle   6 NSaved=   6.
 NSaved= 6 IEnMin= 6 EnMin= -474.807570213462     IErMin= 6 ErrMin= 4.09D-04
 ErrMax= 4.09D-04  0.00D+00 EMaxC= 1.00D-01 BMatC= 1.07D-04 BMatP= 1.04D-03
 IDIUse=3 WtCom= 9.96D-01 WtEn= 4.09D-03
 Coeff-Com:  0.140D-01-0.212D-01-0.400D-01-0.759D-01 0.183D+00 0.940D+00
 Coeff-En:   0.000D+00 0.000D+00 0.000D+00 0.000D+00 0.000D+00 0.100D+01
 Coeff:      0.139D-01-0.211D-01-0.399D-01-0.755D-01 0.182D+00 0.941D+00
 Gap=     0.146 Goal=   None    Shift=    0.000
 Gap=     0.172 Goal=   None    Shift=    0.000
 RMSDP=9.52D-05 MaxDP=4.51D-03 DE=-3.17D-04 OVMax= 5.85D-03

 Cycle   7  Pass 1  IDiag  1:
 RMSU=  3.53D-05    CP:  9.58D-01  7.53D-01  1.29D+00  1.15D+00  1.04D+00
                    CP:  1.18D+00
 E= -474.807619379944     Delta-E=       -0.000049166482 Rises=F Damp=F
 DIIS: error= 7.15D-05 at cycle   7 NSaved=   7.
 NSaved= 7 IEnMin= 7 EnMin= -474.807619379944     IErMin= 7 ErrMin= 7.15D-05
 ErrMax= 7.15D-05  0.00D+00 EMaxC= 1.00D-01 BMatC= 3.99D-06 BMatP= 1.07D-04
 IDIUse=1 WtCom= 1.00D+00 WtEn= 0.00D+00
 Coeff-Com:  0.285D-03 0.147D-02-0.760D-02-0.406D-01 0.203D-02 0.180D+00
 Coeff-Com:  0.864D+00
 Coeff:      0.285D-03 0.147D-02-0.760D-02-0.406D-01 0.203D-02 0.180D+00
 Coeff:      0.864D+00
 Gap=     0.146 Goal=   None    Shift=    0.000
 Gap=     0.172 Goal=   None    Shift=    0.000
 RMSDP=2.37D-05 MaxDP=7.99D-04 DE=-4.92D-05 OVMax= 1.86D-03

 Cycle   8  Pass 1  IDiag  1:
 RMSU=  1.44D-05    CP:  9.58D-01  7.51D-01  1.29D+00  1.16D+00  1.07D+00
                    CP:  1.26D+00  1.26D+00
 E= -474.807622663473     Delta-E=       -0.000003283530 Rises=F Damp=F
 DIIS: error= 3.81D-05 at cycle   8 NSaved=   8.
 NSaved= 8 IEnMin= 8 EnMin= -474.807622663473     IErMin= 8 ErrMin= 3.81D-05
 ErrMax= 3.81D-05  0.00D+00 EMaxC= 1.00D-01 BMatC= 8.98D-07 BMatP= 3.99D-06
 IDIUse=1 WtCom= 1.00D+00 WtEn= 0.00D+00
 Coeff-Com: -0.114D-02 0.190D-02 0.418D-02 0.104D-01-0.219D-01-0.140D+00
 Coeff-Com:  0.728D-01 0.107D+01
 Coeff:     -0.114D-02 0.190D-02 0.418D-02 0.104D-01-0.219D-01-0.140D+00
 Coeff:      0.728D-01 0.107D+01
 Gap=     0.146 Goal=   None    Shift=    0.000
 Gap=     0.172 Goal=   None    Shift=    0.000
 RMSDP=1.63D-05 MaxDP=5.15D-04 DE=-3.28D-06 OVMax= 1.23D-03

 Cycle   9  Pass 1  IDiag  1:
 RMSU=  5.36D-06    CP:  9.57D-01  7.49D-01  1.30D+00  1.17D+00  1.08D+00
                    CP:  1.31D+00  1.53D+00  1.40D+00
 E= -474.807623613224     Delta-E=       -0.000000949751 Rises=F Damp=F
 DIIS: error= 1.97D-05 at cycle   9 NSaved=   9.
 NSaved= 9 IEnMin= 9 EnMin= -474.807623613224     IErMin= 9 ErrMin= 1.97D-05
 ErrMax= 1.97D-05  0.00D+00 EMaxC= 1.00D-01 BMatC= 1.58D-07 BMatP= 8.98D-07
 IDIUse=1 WtCom= 1.00D+00 WtEn= 0.00D+00
 Coeff-Com: -0.103D-03-0.229D-04 0.223D-02 0.793D-02-0.629D-02-0.651D-01
 Coeff-Com: -0.979D-01 0.309D+00 0.850D+00
 Coeff:     -0.103D-03-0.229D-04 0.223D-02 0.793D-02-0.629D-02-0.651D-01
 Coeff:     -0.979D-01 0.309D+00 0.850D+00
 Gap=     0.146 Goal=   None    Shift=    0.000
 Gap=     0.172 Goal=   None    Shift=    0.000
 RMSDP=6.74D-06 MaxDP=2.17D-04 DE=-9.50D-07 OVMax= 4.73D-04

 Cycle  10  Pass 1  IDiag  1:
 RMSU=  1.81D-06    CP:  9.57D-01  7.48D-01  1.30D+00  1.17D+00  1.09D+00
                    CP:  1.32D+00  1.61D+00  1.62D+00  1.13D+00
 E= -474.807623732078     Delta-E=       -0.000000118853 Rises=F Damp=F
 DIIS: error= 5.08D-06 at cycle  10 NSaved=  10.
 NSaved=10 IEnMin=10 EnMin= -474.807623732078     IErMin=10 ErrMin= 5.08D-06
 ErrMax= 5.08D-06  0.00D+00 EMaxC= 1.00D-01 BMatC= 1.30D-08 BMatP= 1.58D-07
 IDIUse=1 WtCom= 1.00D+00 WtEn= 0.00D+00
 Coeff-Com:  0.153D-03-0.284D-03-0.220D-03 0.230D-03 0.124D-02 0.440D-02
 Coeff-Com: -0.351D-01-0.599D-01 0.165D+00 0.925D+00
 Coeff:      0.153D-03-0.284D-03-0.220D-03 0.230D-03 0.124D-02 0.440D-02
 Coeff:     -0.351D-01-0.599D-01 0.165D+00 0.925D+00
 Gap=     0.146 Goal=   None    Shift=    0.000
 Gap=     0.172 Goal=   None    Shift=    0.000
 RMSDP=2.14D-06 MaxDP=7.25D-05 DE=-1.19D-07 OVMax= 1.77D-04

 Cycle  11  Pass 1  IDiag  1:
 RMSU=  5.11D-07    CP:  9.57D-01  7.48D-01  1.30D+00  1.17D+00  1.09D+00
                    CP:  1.33D+00  1.63D+00  1.69D+00  1.30D+00  1.22D+00
 E= -474.807623743603     Delta-E=       -0.000000011525 Rises=F Damp=F
 DIIS: error= 2.65D-06 at cycle  11 NSaved=  11.
 NSaved=11 IEnMin=11 EnMin= -474.807623743603     IErMin=11 ErrMin= 2.65D-06
 ErrMax= 2.65D-06  0.00D+00 EMaxC= 1.00D-01 BMatC= 3.30D-09 BMatP= 1.30D-08
 IDIUse=1 WtCom= 1.00D+00 WtEn= 0.00D+00
 Coeff-Com:  0.147D-04 0.766D-06-0.345D-03-0.125D-02 0.139D-02 0.130D-01
 Coeff-Com:  0.877D-02-0.680D-01-0.981D-01 0.259D+00 0.885D+00
 Coeff:      0.147D-04 0.766D-06-0.345D-03-0.125D-02 0.139D-02 0.130D-01
 Coeff:      0.877D-02-0.680D-01-0.981D-01 0.259D+00 0.885D+00
 Gap=     0.146 Goal=   None    Shift=    0.000
 Gap=     0.172 Goal=   None    Shift=    0.000
 RMSDP=6.32D-07 MaxDP=1.86D-05 DE=-1.15D-08 OVMax= 5.08D-05

 Cycle  12  Pass 1  IDiag  1:
 RMSU=  2.18D-07    CP:  9.57D-01  7.48D-01  1.30D+00  1.17D+00  1.09D+00
                    CP:  1.33D+00  1.64D+00  1.71D+00  1.35D+00  1.42D+00
                    CP:  1.06D+00
 E= -474.807623745444     Delta-E=       -0.000000001841 Rises=F Damp=F
 DIIS: error= 8.16D-07 at cycle  12 NSaved=  12.
 NSaved=12 IEnMin=12 EnMin= -474.807623745444     IErMin=12 ErrMin= 8.16D-07
 ErrMax= 8.16D-07  0.00D+00 EMaxC= 1.00D-01 BMatC= 3.02D-10 BMatP= 3.30D-09
 IDIUse=1 WtCom= 1.00D+00 WtEn= 0.00D+00
 Coeff-Com: -0.257D-04 0.398D-04-0.260D-04 0.348D-04 0.321D-04-0.159D-03
 Coeff-Com:  0.425D-02 0.386D-02-0.232D-01-0.117D+00 0.129D+00 0.100D+01
 Coeff:     -0.257D-04 0.398D-04-0.260D-04 0.348D-04 0.321D-04-0.159D-03
 Coeff:      0.425D-02 0.386D-02-0.232D-01-0.117D+00 0.129D+00 0.100D+01
 Gap=     0.146 Goal=   None    Shift=    0.000
 Gap=     0.172 Goal=   None    Shift=    0.000
 RMSDP=2.33D-07 MaxDP=7.57D-06 DE=-1.84D-09 OVMax= 1.93D-05

 Cycle  13  Pass 1  IDiag  1:
 RMSU=  5.19D-08    CP:  9.57D-01  7.48D-01  1.30D+00  1.17D+00  1.09D+00
                    CP:  1.33D+00  1.64D+00  1.72D+00  1.37D+00  1.47D+00
                    CP:  1.28D+00  1.24D+00
 E= -474.807623745656     Delta-E=       -0.000000000212 Rises=F Damp=F
 DIIS: error= 1.56D-07 at cycle  13 NSaved=  13.
 NSaved=13 IEnMin=13 EnMin= -474.807623745656     IErMin=13 ErrMin= 1.56D-07
 ErrMax= 1.56D-07  0.00D+00 EMaxC= 1.00D-01 BMatC= 1.60D-11 BMatP= 3.02D-10
 IDIUse=1 WtCom= 1.00D+00 WtEn= 0.00D+00
 Coeff-Com: -0.206D-05 0.291D-05 0.100D-04 0.539D-04-0.935D-04-0.790D-03
 Coeff-Com: -0.696D-04 0.436D-02 0.398D-02-0.228D-01-0.631D-01 0.453D-01
 Coeff-Com:  0.103D+01
 Coeff:     -0.206D-05 0.291D-05 0.100D-04 0.539D-04-0.935D-04-0.790D-03
 Coeff:     -0.696D-04 0.436D-02 0.398D-02-0.228D-01-0.631D-01 0.453D-01
 Coeff:      0.103D+01
 Gap=     0.146 Goal=   None    Shift=    0.000
 Gap=     0.172 Goal=   None    Shift=    0.000
 RMSDP=5.63D-08 MaxDP=1.19D-06 DE=-2.12D-10 OVMax= 5.28D-06

 Cycle  14  Pass 1  IDiag  1:
 RMSU=  2.40D-08    CP:  9.57D-01  7.48D-01  1.30D+00  1.17D+00  1.09D+00
                    CP:  1.33D+00  1.64D+00  1.72D+00  1.37D+00  1.48D+00
                    CP:  1.33D+00  1.37D+00  1.18D+00
 E= -474.807623745674     Delta-E=       -0.000000000018 Rises=F Damp=F
 DIIS: error= 9.49D-08 at cycle  14 NSaved=  14.
 NSaved=14 IEnMin=14 EnMin= -474.807623745674     IErMin=14 ErrMin= 9.49D-08
 ErrMax= 9.49D-08  0.00D+00 EMaxC= 1.00D-01 BMatC= 4.82D-12 BMatP= 1.60D-11
 IDIUse=1 WtCom= 1.00D+00 WtEn= 0.00D+00
 Coeff-Com:  0.284D-05-0.421D-05 0.872D-05 0.204D-04-0.540D-04-0.353D-03
 Coeff-Com: -0.607D-03 0.158D-02 0.510D-02 0.642D-02-0.469D-01-0.113D+00
 Coeff-Com:  0.404D+00 0.744D+00
 Coeff:      0.284D-05-0.421D-05 0.872D-05 0.204D-04-0.540D-04-0.353D-03
 Coeff:     -0.607D-03 0.158D-02 0.510D-02 0.642D-02-0.469D-01-0.113D+00
 Coeff:      0.404D+00 0.744D+00
 Gap=     0.146 Goal=   None    Shift=    0.000
 Gap=     0.172 Goal=   None    Shift=    0.000
 RMSDP=2.23D-08 MaxDP=7.20D-07 DE=-1.84D-11 OVMax= 1.19D-06

 Cycle  15  Pass 1  IDiag  1:
 RMSU=  7.10D-09    CP:  9.57D-01  7.48D-01  1.30D+00  1.17D+00  1.09D+00
                    CP:  1.33D+00  1.64D+00  1.72D+00  1.37D+00  1.48D+00
                    CP:  1.34D+00  1.41D+00  1.37D+00  8.25D-01
 E= -474.807623745679     Delta-E=       -0.000000000004 Rises=F Damp=F
 DIIS: error= 2.39D-08 at cycle  15 NSaved=  15.
 NSaved=15 IEnMin=15 EnMin= -474.807623745679     IErMin=15 ErrMin= 2.39D-08
 ErrMax= 2.39D-08  0.00D+00 EMaxC= 1.00D-01 BMatC= 2.21D-13 BMatP= 4.82D-12
 IDIUse=1 WtCom= 1.00D+00 WtEn= 0.00D+00
 Coeff-Com:  0.446D-06-0.547D-06 0.180D-05-0.138D-05-0.370D-06 0.318D-04
 Coeff-Com: -0.543D-04-0.244D-03 0.135D-03 0.291D-02 0.832D-03-0.131D-01
 Coeff-Com: -0.735D-01 0.779D-01 0.101D+01
 Coeff:      0.446D-06-0.547D-06 0.180D-05-0.138D-05-0.370D-06 0.318D-04
 Coeff:     -0.543D-04-0.244D-03 0.135D-03 0.291D-02 0.832D-03-0.131D-01
 Coeff:     -0.735D-01 0.779D-01 0.101D+01
 Gap=     0.146 Goal=   None    Shift=    0.000
 Gap=     0.172 Goal=   None    Shift=    0.000
 RMSDP=4.70D-09 MaxDP=1.10D-07 DE=-4.32D-12 OVMax= 4.13D-07

 SCF Done:  E(UB3LYP) =  -474.807623746     A.U. after   15 cycles
            NFock= 15  Conv=0.47D-08     -V/T= 2.0019
 <Sx>= 0.0000 <Sy>= 0.0000 <Sz>= 1.5000 <S**2>= 3.7619 S= 1.5030
 <L.S>= 0.000000000000E+00
 KE= 4.739299704897D+02 PE=-1.281635469782D+03 EE= 2.543521334400D+02
 Annihilation of the first spin contaminant:
 S**2 before annihilation     3.7619,   after     3.7501
 Leave Link  502 at Wed Aug  3 20:18:55 2016, MaxMem=    33554432 cpu:       119.2
 (Enter /home/proyectos/fulerenos/M3C-v2.0/M3C-deps_CCC/g09-AM64L-G09RevC.01/l801.exe)
 DoSCS=F DFT=T ScalE2(SS,OS)=  1.000000  1.000000
 Range of M.O.s used for correlation:     1   135
 NBasis=   135 NAE=    16 NBE=    13 NFC=     0 NFV=     0
 NROrb=    135 NOA=    16 NOB=    13 NVA=   119 NVB=   122

 **** Warning!!: The largest alpha MO coefficient is  0.45219095D+02


 **** Warning!!: The largest beta MO coefficient is  0.44242039D+02

 Leave Link  801 at Wed Aug  3 20:18:55 2016, MaxMem=    33554432 cpu:         0.1
 (Enter /home/proyectos/fulerenos/M3C-v2.0/M3C-deps_CCC/g09-AM64L-G09RevC.01/l1101.exe)
 Using compressed storage, NAtomX=     4.
 Will process      5 centers per pass.
 Leave Link 1101 at Wed Aug  3 20:18:55 2016, MaxMem=    33554432 cpu:         0.9
 (Enter /home/proyectos/fulerenos/M3C-v2.0/M3C-deps_CCC/g09-AM64L-G09RevC.01/l1102.exe)
 Symmetrizing basis deriv contribution to polar:
 IMax=3 JMax=2 DiffMx= 0.00D+00
 Leave Link 1102 at Wed Aug  3 20:18:55 2016, MaxMem=    33554432 cpu:         0.1
 (Enter /home/proyectos/fulerenos/M3C-v2.0/M3C-deps_CCC/g09-AM64L-G09RevC.01/l1110.exe)
 Forming Gx(P) for the SCF density, NAtomX=     4.
 Integral derivatives from FoFJK, PRISM(SPDF).
 Do as many integral derivatives as possible in FoFJK.
 G2DrvN: MDV=      33554296.
 G2DrvN: will do     5 centers at a time, making    1 passes.
 Calling FoFCou, ICntrl=  3107 FMM=F I1Cent=   0 AccDes= 0.00D+00.
 FoFJK:  IHMeth= 1 ICntrl=    3107 DoSepK=F KAlg= 0 I1Cent=   0 FoldK=F
 IRaf=         0 NMat=   1 IRICut=       1 DoRegI=T DoRafI=F ISym2E= 0.
 FoFCou: FMM=F IPFlag=           0 FMFlag=      100000 FMFlg1=           0
         NFxFlg=           0 DoJE=F BraDBF=F KetDBF=F FulRan=T
         wScrn=  0.000000 ICntrl=    3107 IOpCl=  1 I1Cent=           0 NGrid=           0
         NMat0=    1 NMatS0=      1 NMatT0=    0 NMatD0=    1 NMtDS0=    0 NMtDT0=    0
 Symmetry not used in FoFCou.
 End of G2Drv F.D. properties file   721 does not exist.
 End of G2Drv F.D. properties file   722 does not exist.
 End of G2Drv F.D. properties file   788 does not exist.
 Leave Link 1110 at Wed Aug  3 20:19:10 2016, MaxMem=    33554432 cpu:        57.0
 (Enter /home/proyectos/fulerenos/M3C-v2.0/M3C-deps_CCC/g09-AM64L-G09RevC.01/l1002.exe)
 Minotr:  UHF open shell wavefunction.
          IDoAtm=1111
          Direct CPHF calculation.
          Differentiating once with respect to electric field.
                with respect to dipole field.
          Differentiating once with respect to nuclear coordinates.
          Requested convergence is 1.0D-08 RMS, and 1.0D-07 maximum.
          Secondary convergence is 1.0D-12 RMS, and 1.0D-12 maximum.
          NewPWx=T KeepS1=F KeepF1=F KeepIn=T MapXYZ=F SortEE=F KeepMc=T.
          MDV=      33554118 using IRadAn=       2.
 Generate precomputed XC quadrature information.
          Solving linear equations simultaneously, MaxMat=       0.
 FoFJK:  IHMeth= 1 ICntrl=       0 DoSepK=F KAlg= 0 I1Cent=   0 FoldK=F
 IRaf= 990000000 NMat=  15 IRICut=      37 DoRegI=T DoRafI=T ISym2E= 2.
 FoFCou: FMM=F IPFlag=           0 FMFlag=      100000 FMFlg1=           0
         NFxFlg=           0 DoJE=F BraDBF=F KetDBF=F FulRan=T
         wScrn=  0.000000 ICntrl=       0 IOpCl=  1 I1Cent=           0 NGrid=           0
         NMat0=   15 NMatS0=     15 NMatT0=    0 NMatD0=   15 NMtDS0=    0 NMtDT0=    0
 Integrals replicated using symmetry in FoFCou.
          There are    15 degrees of freedom in the 1st order CPHF.  IDoFFX=6 NUNeed=     3.
     12 vectors produced by pass  0 Test12= 2.33D-14 6.67D-09 XBig12= 1.52D+02 6.09D+00.
 AX will form    12 AO Fock derivatives at one time.
     12 vectors produced by pass  1 Test12= 2.33D-14 6.67D-09 XBig12= 6.61D+01 2.29D+00.
     12 vectors produced by pass  2 Test12= 2.33D-14 6.67D-09 XBig12= 4.66D+00 6.42D-01.
     12 vectors produced by pass  3 Test12= 2.33D-14 6.67D-09 XBig12= 1.55D-01 9.28D-02.
     12 vectors produced by pass  4 Test12= 2.33D-14 6.67D-09 XBig12= 3.85D-03 1.04D-02.
     12 vectors produced by pass  5 Test12= 2.33D-14 6.67D-09 XBig12= 7.37D-05 1.83D-03.
     12 vectors produced by pass  6 Test12= 2.33D-14 6.67D-09 XBig12= 8.88D-07 1.85D-04.
     11 vectors produced by pass  7 Test12= 2.33D-14 6.67D-09 XBig12= 7.68D-09 1.23D-05.
      4 vectors produced by pass  8 Test12= 2.33D-14 6.67D-09 XBig12= 3.93D-11 1.17D-06.
      3 vectors produced by pass  9 Test12= 2.33D-14 6.67D-09 XBig12= 2.31D-13 8.31D-08.
      2 vectors produced by pass 10 Test12= 2.33D-14 6.67D-09 XBig12= 2.93D-15 1.28D-08.
 InvSVY:  IOpt=1 It=  1 EMax= 4.44D-16
 Solved reduced A of dimension   104 with    12 vectors.
 FullF1:  Do perturbations    1 to     3.
 Isotropic polarizability for W=    0.000000       42.06 Bohr**3.
 End of Minotr F.D. properties file   721 does not exist.
 End of Minotr F.D. properties file   722 does not exist.
 End of Minotr F.D. properties file   788 does not exist.
 Leave Link 1002 at Wed Aug  3 20:19:58 2016, MaxMem=    33554432 cpu:       194.5
 (Enter /home/proyectos/fulerenos/M3C-v2.0/M3C-deps_CCC/g09-AM64L-G09RevC.01/l601.exe)
 Copying SCF densities to generalized density rwf, IOpCl= 1 IROHF=0.

 **********************************************************************

            Population analysis using the SCF density.

 **********************************************************************

 Orbital symmetries:
 Alpha Orbitals:
       Occupied  (A) (A) (A) (A) (A) (A) (A) (A) (A) (A) (A) (A)
                 (A) (A) (A) (A)
       Virtual   (A) (A) (A) (A) (A) (A) (A) (A) (A) (A) (A) (A)
                 (A) (A) (A) (A) (A) (A) (A) (A) (A) (A) (A) (A)
                 (A) (A) (A) (A) (A) (A) (A) (A) (A) (A) (A) (A)
                 (A) (A) (A) (A) (A) (A) (A) (A) (A) (A) (A) (A)
                 (A) (A) (A) (A) (A) (A) (A) (A) (A) (A) (A) (A)
                 (A) (A) (A) (A) (A) (A) (A) (A) (A) (A) (A) (A)
                 (A) (A) (A) (A) (A) (A) (A) (A) (A) (A) (A) (A)
                 (A) (A) (A) (A) (A) (A) (A) (A) (A) (A) (A) (A)
                 (A) (A) (A) (A) (A) (A) (A) (A) (A) (A) (A) (A)
                 (A) (A) (A) (A) (A) (A) (A) (A) (A) (A) (A)
 Beta  Orbitals:
       Occupied  (A) (A) (A) (A) (A) (A) (A) (A) (A) (A) (A) (A)
                 (A)
       Virtual   (A) (A) (A) (A) (A) (A) (A) (A) (A) (A) (A) (A)
                 (A) (A) (A) (A) (A) (A) (A) (A) (A) (A) (A) (A)
                 (A) (A) (A) (A) (A) (A) (A) (A) (A) (A) (A) (A)
                 (A) (A) (A) (A) (A) (A) (A) (A) (A) (A) (A) (A)
                 (A) (A) (A) (A) (A) (A) (A) (A) (A) (A) (A) (A)
                 (A) (A) (A) (A) (A) (A) (A) (A) (A) (A) (A) (A)
                 (A) (A) (A) (A) (A) (A) (A) (A) (A) (A) (A) (A)
                 (A) (A) (A) (A) (A) (A) (A) (A) (A) (A) (A) (A)
                 (A) (A) (A) (A) (A) (A) (A) (A) (A) (A) (A) (A)
                 (A) (A) (A) (A) (A) (A) (A) (A) (A) (A) (A) (A)
                 (A) (A)
 The electronic state is 4-A.
 Alpha  occ. eigenvalues --  -88.91714 -10.25481 -10.24445  -7.99940  -5.96194
 Alpha  occ. eigenvalues --   -5.95975  -5.95871  -0.91613  -0.65506  -0.57878
 Alpha  occ. eigenvalues --   -0.45626  -0.41137  -0.37802  -0.31036  -0.25995
 Alpha  occ. eigenvalues --   -0.18213
 Alpha virt. eigenvalues --   -0.03635   0.00111   0.00851   0.03601   0.04403
 Alpha virt. eigenvalues --    0.06744   0.07589   0.07971   0.08448   0.09748
 Alpha virt. eigenvalues --    0.10337   0.12580   0.13580   0.15255   0.16418
 Alpha virt. eigenvalues --    0.17393   0.22037   0.24473   0.25184   0.25743
 Alpha virt. eigenvalues --    0.27220   0.31291   0.32229   0.34229   0.39147
 Alpha virt. eigenvalues --    0.40820   0.43891   0.45459   0.47073   0.49148
 Alpha virt. eigenvalues --    0.50303   0.51111   0.54220   0.55655   0.61016
 Alpha virt. eigenvalues --    0.63092   0.65238   0.66057   0.71318   0.75149
 Alpha virt. eigenvalues --    0.77838   0.85419   0.87590   0.93705   0.94978
 Alpha virt. eigenvalues --    0.96245   0.97994   1.02063   1.06122   1.08729
 Alpha virt. eigenvalues --    1.14774   1.24029   1.31629   1.35749   1.44278
 Alpha virt. eigenvalues --    1.49171   1.55556   1.60798   1.63497   1.64464
 Alpha virt. eigenvalues --    1.65836   1.76486   1.79036   1.84466   1.89202
 Alpha virt. eigenvalues --    1.91161   1.97904   2.01685   2.04632   2.05832
 Alpha virt. eigenvalues --    2.15297   2.32543   2.36322   2.56590   2.68040
 Alpha virt. eigenvalues --    2.72069   2.78624   2.82297   2.95556   2.99734
 Alpha virt. eigenvalues --    3.01781   3.04961   3.09208   3.16253   3.16989
 Alpha virt. eigenvalues --    3.19389   3.28944   3.37383   3.52300   3.56099
 Alpha virt. eigenvalues --    3.72458   4.01873   4.19781   4.34499   4.44866
 Alpha virt. eigenvalues --    4.61116   4.62467   4.68338   4.79372   5.17863
 Alpha virt. eigenvalues --    5.31530   5.54265   6.95881   6.98986   7.06684
 Alpha virt. eigenvalues --    7.07577   7.17227   7.19904   7.32352   7.59429
 Alpha virt. eigenvalues --    7.65323   7.80177   8.42495  17.28074  17.55767
 Alpha virt. eigenvalues --   17.82902  23.78948  24.91478 189.24782
  Beta  occ. eigenvalues --  -88.91252 -10.24105 -10.21846  -7.99516  -5.95764
  Beta  occ. eigenvalues --   -5.95399  -5.94919  -0.88723  -0.61731  -0.53481
  Beta  occ. eigenvalues --   -0.39932  -0.36429  -0.33344
  Beta virt. eigenvalues --   -0.16170  -0.12942  -0.03170  -0.01367   0.00524
  Beta virt. eigenvalues --    0.01752   0.04413   0.05013   0.07092   0.07911
  Beta virt. eigenvalues --    0.08672   0.09178   0.11065   0.11486   0.13343
  Beta virt. eigenvalues --    0.13732   0.15865   0.17170   0.18782   0.24240
  Beta virt. eigenvalues --    0.26523   0.26876   0.27878   0.28605   0.32772
  Beta virt. eigenvalues --    0.33760   0.36090   0.41064   0.43249   0.46195
  Beta virt. eigenvalues --    0.46628   0.49638   0.51025   0.52652   0.53926
  Beta virt. eigenvalues --    0.56445   0.57804   0.63929   0.64435   0.68068
  Beta virt. eigenvalues --    0.68257   0.74220   0.76243   0.78901   0.86825
  Beta virt. eigenvalues --    0.89512   0.95408   0.96847   0.98432   1.00031
  Beta virt. eigenvalues --    1.03965   1.07376   1.10119   1.16061   1.26493
  Beta virt. eigenvalues --    1.34772   1.39122   1.47620   1.53925   1.59087
  Beta virt. eigenvalues --    1.64475   1.66480   1.67785   1.70449   1.80553
  Beta virt. eigenvalues --    1.84230   1.88299   1.92676   1.94261   2.01331
  Beta virt. eigenvalues --    2.06238   2.09614   2.10032   2.19430   2.34572
  Beta virt. eigenvalues --    2.37942   2.59682   2.72544   2.78508   2.81164
  Beta virt. eigenvalues --    2.88271   2.99754   3.04574   3.06754   3.09555
  Beta virt. eigenvalues --    3.12135   3.19563   3.22296   3.23681   3.31340
  Beta virt. eigenvalues --    3.42216   3.55468   3.59966   3.75766   4.05093
  Beta virt. eigenvalues --    4.22453   4.36610   4.48460   4.62460   4.63811
  Beta virt. eigenvalues --    4.71379   4.80607   5.18968   5.32859   5.56512
  Beta virt. eigenvalues --    7.01618   7.04536   7.13766   7.16455   7.23268
  Beta virt. eigenvalues --    7.25244   7.35831   7.64344   7.69388   7.84324
  Beta virt. eigenvalues --    8.44092  17.29456  17.56717  17.83213  23.81261
  Beta virt. eigenvalues --   24.93730 189.25205
          Condensed to atoms (all electrons):
               1          2          3          4
     1  S   15.530769   0.272485   0.171170   0.006716
     2  C    0.272485   6.540180  -1.023620   0.338300
     3  C    0.171170  -1.023620   6.952220  -0.067718
     4  H    0.006716   0.338300  -0.067718   0.582166
          Atomic-Atomic Spin Densities.
               1          2          3          4
     1  S    0.922306  -0.031287  -0.164844   0.008654
     2  C   -0.031287   1.500268  -0.669764  -0.104395
     3  C   -0.164844  -0.669764   2.335815   0.007649
     4  H    0.008654  -0.104395   0.007649   0.149583
 Mulliken charges and spin densities:
               1          2
     1  S    0.018860   0.734830
     2  C   -0.127344   0.694823
     3  C   -0.032052   1.508856
     4  H    0.140537   0.061491
 Sum of Mulliken charges =  -0.00000   3.00000
 Mulliken charges and spin densities with hydrogens summed into heavy atoms:
               1          2
     1  S    0.018860   0.734830
     2  C    0.013193   0.756314
     3  C   -0.032052   1.508856
 APT charges:
               1
     1  S   -0.060130
     2  C    0.095708
     3  C   -0.095179
     4  H    0.059600
 Sum of APT charges =  -0.00000
 APT charges with hydrogens summed into heavy atoms:
               1
     1  S   -0.060130
     2  C    0.155308
     3  C   -0.095179
 Electronic spatial extent (au):  <R**2>=            155.8689
 Charge=             -0.0000 electrons
 Dipole moment (field-independent basis, Debye):
    X=              0.2838    Y=             -0.8035    Z=              0.5722  Tot=              1.0264
 Quadrupole moment (field-independent basis, Debye-Ang):
   XX=            -23.4501   YY=            -24.7210   ZZ=            -26.2337
   XY=              1.1063   XZ=             -0.9796   YZ=             -0.6642
 Traceless Quadrupole moment (field-independent basis, Debye-Ang):
   XX=              1.3515   YY=              0.0806   ZZ=             -1.4321
   XY=              1.1063   XZ=             -0.9796   YZ=             -0.6642
 Octapole moment (field-independent basis, Debye-Ang**2):
  XXX=              4.8357  YYY=             -3.5327  ZZZ=              0.8983  XYY=              1.5254
  XXY=             -1.7958  XXZ=              1.6867  XZZ=              1.9891  YZZ=             -0.9238
  YYZ=              1.0129  XYZ=              1.4933
 Hexadecapole moment (field-independent basis, Debye-Ang**3):
 XXXX=           -127.9976 YYYY=            -73.5637 ZZZZ=            -37.9128 XXXY=              3.4425
 XXXZ=             -3.0337 YYYX=              2.7071 YYYZ=             -1.4846 ZZZX=             -1.5954
 ZZZY=             -1.4166 XXYY=            -32.4307 XXZZ=            -29.6718 YYZZ=            -19.9228
 XXYZ=             -1.8855 YYXZ=             -1.7762 ZZXY=              0.9196
 N-N= 7.854574210681D+01 E-N=-1.281635470765D+03  KE= 4.739299704897D+02
  Exact polarizability:  51.127  -0.305  41.569   0.964  -0.123  33.498
 Approx polarizability:  94.785  -5.605  68.616   3.325   0.724  46.830
                          Isotropic Fermi Contact Couplings
        Atom                 a.u.       MegaHertz       Gauss      10(-4) cm-1
     1  S(33)              0.07162       8.19986       2.92591       2.73518
     2  C(13)              0.35698     133.77029      47.73256      44.62096
     3  C(13)              0.73631     275.91949      98.45493      92.03683
     4  H(1)               0.02562      38.17879      13.62314      12.73507
 --------------------------------------------------------
       Center         ----  Spin Dipole Couplings  ----
                      3XX-RR        3YY-RR        3ZZ-RR
 --------------------------------------------------------
     1   Atom       -1.768839     -0.031753      1.800592
     2   Atom       -0.487512     -0.215418      0.702931
     3   Atom       -0.851782      0.121092      0.730690
     4   Atom       -0.024858      0.030105     -0.005248
 --------------------------------------------------------
                        XY            XZ            YZ
 --------------------------------------------------------
     1   Atom        0.528560     -0.058560      0.317655
     2   Atom       -0.011277      0.165358      0.346295
     3   Atom       -0.153245     -0.121736     -0.002026
     4   Atom        0.051000     -0.023052     -0.036344
 --------------------------------------------------------


 ---------------------------------------------------------------------------------
              Anisotropic Spin Dipole Couplings in Principal Axis System
 ---------------------------------------------------------------------------------

       Atom             a.u.   MegaHertz   Gauss  10(-4) cm-1        Axes

              Baa    -1.9225   -78.821   -28.125   -26.292  0.9607 -0.2750  0.0386
     1 S(33)  Bbb     0.0682     2.794     0.997     0.932  0.2776  0.9466 -0.1642
              Bcc     1.8544    76.027    27.128    25.360  0.0086  0.1684  0.9857
 
              Baa    -0.5255   -70.522   -25.164   -23.524  0.9454  0.2575 -0.1998
     2 C(13)  Bbb    -0.3111   -41.748   -14.897   -13.926 -0.3049  0.9154 -0.2629
              Bcc     0.8367   112.270    40.061    37.449  0.1152  0.3095  0.9439
 
              Baa    -0.8844  -118.673   -42.345   -39.585  0.9858  0.1504  0.0745
     3 C(13)  Bbb     0.1442    19.351     6.905     6.455 -0.1487  0.9885 -0.0275
              Bcc     0.7402    99.322    35.440    33.130 -0.0778  0.0160  0.9968
 
              Baa    -0.0553   -29.531   -10.537    -9.851  0.8645 -0.5015  0.0340
     4 H(1)   Bbb    -0.0265   -14.123    -5.039    -4.711  0.1961  0.3987  0.8959
              Bcc     0.0818    43.654    15.577    14.562  0.4628  0.7678 -0.4430
 

 ---------------------------------------------------------------------------------

 No NMR shielding tensors so no spin-rotation constants.
 Leave Link  601 at Wed Aug  3 20:19:59 2016, MaxMem=    33554432 cpu:         1.6
 (Enter /home/proyectos/fulerenos/M3C-v2.0/M3C-deps_CCC/g09-AM64L-G09RevC.01/l701.exe)
 Compute integral second derivatives.
 ... and contract with generalized density number  0.
 Leave Link  701 at Wed Aug  3 20:19:59 2016, MaxMem=    33554432 cpu:         1.4
 (Enter /home/proyectos/fulerenos/M3C-v2.0/M3C-deps_CCC/g09-AM64L-G09RevC.01/l702.exe)
 L702 exits ... SP integral derivatives will be done elsewhere.
 Leave Link  702 at Wed Aug  3 20:19:59 2016, MaxMem=    33554432 cpu:         0.1
 (Enter /home/proyectos/fulerenos/M3C-v2.0/M3C-deps_CCC/g09-AM64L-G09RevC.01/l703.exe)
 Compute integral second derivatives, UseDBF=F ICtDFT=           0.
 Integral derivatives from FoFJK, PRISM(SPDF).
 Calling FoFJK, ICntrl=    100127 FMM=F ISym2X=0 I1Cent= 0 IOpClX= 1 NMat=1 NMatS=1 NMatT=0.
 FoFJK:  IHMeth= 1 ICntrl=  100127 DoSepK=F KAlg= 0 I1Cent=   0 FoldK=F
 IRaf=         0 NMat=   1 IRICut=       1 DoRegI=T DoRafI=F ISym2E= 0.
 FoFCou: FMM=F IPFlag=           0 FMFlag=      100000 FMFlg1=         800
         NFxFlg=           0 DoJE=F BraDBF=F KetDBF=F FulRan=T
         wScrn=  0.000000 ICntrl=  100127 IOpCl=  1 I1Cent=           0 NGrid=           0
         NMat0=    1 NMatS0=      1 NMatT0=    0 NMatD0=    1 NMtDS0=    0 NMtDT0=    0
 Symmetry not used in FoFCou.
 Leave Link  703 at Wed Aug  3 20:20:23 2016, MaxMem=    33554432 cpu:        94.5
 (Enter /home/proyectos/fulerenos/M3C-v2.0/M3C-deps_CCC/g09-AM64L-G09RevC.01/l716.exe)
 Dipole        = 1.11658482D-01-3.16104418D-01 2.25137029D-01
 Polarizability= 5.11273984D+01-3.05193912D-01 4.15690591D+01
                 9.64066610D-01-1.23454365D-01 3.34980609D+01
 Full mass-weighted force constant matrix:
 Low frequencies ---   -6.8642   -0.0040    0.0024    0.0037   11.5603   17.1278
 Low frequencies ---  560.7341  844.1839  855.4345
 Diagonal vibrational polarizability:
        1.0396094       0.9599695       0.2801288
 Harmonic frequencies (cm**-1), IR intensities (KM/Mole), Raman scattering
 activities (A**4/AMU), depolarization ratios for plane and unpolarized
 incident light, reduced masses (AMU), force constants (mDyne/A),
 and normal coordinates:
                      1                      2                      3
                      A                      A                      A
 Frequencies --    560.7341               844.1839               855.4345
 Red. masses --      8.6430                 9.9683                 1.1483
 Frc consts  --      1.6011                 4.1855                 0.4951
 IR Inten    --      4.1614                 2.3831                19.9002
  Atom  AN      X      Y      Z        X      Y      Z        X      Y      Z
     1  16    -0.25  -0.09  -0.02    -0.23   0.16   0.01     0.00  -0.02   0.01
     2   6     0.63  -0.05   0.06    -0.10  -0.16  -0.01    -0.06   0.05  -0.07
     3   6    -0.02   0.31   0.01     0.70  -0.24  -0.02    -0.02   0.01  -0.00
     4   1     0.58  -0.22  -0.22     0.29  -0.49  -0.10     0.90  -0.15   0.39
                      4                      5                      6
                      A                      A                      A
 Frequencies --    964.8493              1249.0894              3028.0553
 Red. masses --      1.2702                 9.8909                 1.0870
 Frc consts  --      0.6967                 9.0923                 5.8720
 IR Inten    --     29.2320                10.3578                26.5822
  Atom  AN      X      Y      Z        X      Y      Z        X      Y      Z
     1  16    -0.02   0.01  -0.00     0.06  -0.01   0.00     0.00   0.00   0.00
     2   6     0.06  -0.05  -0.10    -0.26  -0.57  -0.12    -0.04  -0.06   0.05
     3   6     0.01  -0.05   0.06     0.11   0.62   0.09     0.00   0.00   0.00
     4   1    -0.14   0.75   0.63    -0.15  -0.26   0.33     0.42   0.66  -0.61

 -------------------
 - Thermochemistry -
 -------------------
 Temperature   298.150 Kelvin.  Pressure   1.00000 Atm.
 Atom     1 has atomic number 16 and mass  31.97207
 Atom     2 has atomic number  6 and mass  12.00000
 Atom     3 has atomic number  6 and mass  12.00000
 Atom     4 has atomic number  1 and mass   1.00783
 Molecular mass:    56.97990 amu.
 Principal axes and moments of inertia in atomic units:
                           1         2         3
     Eigenvalues --    50.60186 138.08194 184.97803
           X            0.99717   0.07105  -0.02437
           Y           -0.07222   0.99607  -0.05117
           Z            0.02064   0.05279   0.99839
 This molecule is an asymmetric top.
 Rotational symmetry number  1.
 Rotational temperatures (Kelvin)      1.71167     0.62726     0.46824
 Rotational constants (GHZ):          35.66551    13.07007     9.75652
 Zero-point vibrational energy      44874.0 (Joules/Mol)
                                   10.72514 (Kcal/Mol)
 Warning -- explicit consideration of   1 degrees of freedom as
           vibrations may cause significant error
 Vibrational temperatures:    806.77  1214.59  1230.78  1388.20  1797.16
          (Kelvin)           4356.69
 
 Zero-point correction=                           0.017092 (Hartree/Particle)
 Thermal correction to Energy=                    0.020293
 Thermal correction to Enthalpy=                  0.021238
 Thermal correction to Gibbs Free Energy=        -0.008974
 Sum of electronic and zero-point Energies=           -474.790532
 Sum of electronic and thermal Energies=              -474.787330
 Sum of electronic and thermal Enthalpies=            -474.786386
 Sum of electronic and thermal Free Energies=         -474.816598
 
                     E (Thermal)             CV                S
                      KCal/Mol        Cal/Mol-Kelvin    Cal/Mol-Kelvin
 Total                   12.734              8.815             63.586
 Electronic               0.000              0.000              2.755
 Translational            0.889              2.981             38.041
 Rotational               0.889              2.981             21.785
 Vibrational             10.957              2.853              1.005
 Vibration     1          0.916              1.116              0.522
                       Q            Log10(Q)             Ln(Q)
 Total Bot       0.134219D+05          4.127814          9.504643
 Total V=0       0.975863D+12         11.989389         27.606588
 Vib (Bot)       0.154226D-07         -7.811842        -17.987431
 Vib (Bot)    1  0.276979D+00         -0.557554         -1.283815
 Vib (V=0)       0.112133D+01          0.049733          0.114514
 Vib (V=0)    1  0.107159D+01          0.030029          0.069145
 Electronic      0.400000D+01          0.602060          1.386294
 Translational   0.169059D+08          7.228038         16.643172
 Rotational      0.128694D+05          4.109558          9.462607
 
                                                              b3lyp opt
                                                             IR Spectrum
 
     3                                                                          1                                                    
     0                                                                          2           9   88           5                       
     2                                                                          4           6   54           6                       
     8                                                                          9           5   54           1                       
 
     X                                                                          X           X   XX           X                       
     X                                                                          X           X   XX           X                       
     X                                                                          X           X   X            X                       
     X                                                                          X           X   X                                    
     X                                                                          X           X   X                                    
     X                                                                          X           X   X                                    
     X                                                                          X           X   X                                    
     X                                                                                      X   X                                    
     X                                                                                      X   X                                    
     X                                                                                      X   X                                    
     X                                                                                      X   X                                    
     X                                                                                      X   X                                    
     X                                                                                      X   X                                    
     X                                                                                      X   X                                    
     X                                                                                      X                                        
     X                                                                                      X                                        
     X                                                                                      X                                        
     X                                                                                      X                                        
                                                                                            X                                        
                                                                                            X                                        
 
 ***** Axes restored to original set *****
 -------------------------------------------------------------------
 Center     Atomic                   Forces (Hartrees/Bohr)
 Number     Number              X              Y              Z
 -------------------------------------------------------------------
      1       16          -0.000067891    0.000071727    0.000031644
      2        6           0.000001787   -0.000001363    0.000056756
      3        6           0.000082323   -0.000020390   -0.000094893
      4        1          -0.000016219   -0.000049974    0.000006493
 -------------------------------------------------------------------
 Cartesian Forces:  Max     0.000094893 RMS     0.000052426
 Z-matrix is all fixed cartesians, so copy forces.
 Force constants in Cartesian coordinates: 
                1             2             3             4             5 
      1  0.139441D+00
      2  0.565092D-01  0.100954D+00
      3 -0.132137D+00 -0.737462D-01  0.140901D+00
      4 -0.222989D-01 -0.151038D-01  0.680723D-02  0.208226D+00
      5 -0.291593D-01 -0.976491D-01  0.337625D-01 -0.187709D+00  0.491747D+00
      6  0.275433D-01  0.463769D-01 -0.265631D-01  0.485443D-01 -0.423659D-01
      7 -0.123392D+00 -0.291502D-01  0.117680D+00 -0.443321D-01  0.976043D-01
      8 -0.318277D-01  0.199968D-02  0.343522D-01  0.100659D+00 -0.264961D+00
      9  0.114397D+00  0.271321D-01 -0.114722D+00  0.295991D-01 -0.750075D-01
     10  0.625062D-02 -0.122553D-01  0.764911D-02 -0.141595D+00  0.119264D+00
     11  0.447783D-02 -0.530464D-02  0.563147D-02  0.102153D+00 -0.129137D+00
     12 -0.980394D-02  0.237226D-03  0.384146D-03 -0.849506D-01  0.836109D-01
                6             7             8             9            10 
      6  0.170969D+00
      7  0.139588D-01  0.177463D+00
      8 -0.738189D-01 -0.820190D-01  0.273307D+00
      9 -0.453542D-01 -0.142838D+00  0.407672D-01  0.147907D+00
     10 -0.900464D-01 -0.973848D-02  0.131874D-01 -0.115853D-02  0.145083D+00
     11  0.698080D-01  0.135649D-01 -0.103459D-01  0.710814D-02 -0.120196D+00
     12 -0.990518D-01  0.111987D-01 -0.130051D-02  0.121688D-01  0.835558D-01
               11            12 
     11  0.144787D+00
     12 -0.825476D-01  0.864989D-01
 Leave Link  716 at Wed Aug  3 20:20:23 2016, MaxMem=    33554432 cpu:         0.1
 (Enter /home/proyectos/fulerenos/M3C-v2.0/M3C-deps_CCC/g09-AM64L-G09RevC.01/l103.exe)

 GradGradGradGradGradGradGradGradGradGradGradGradGradGradGradGradGradGrad
 Berny optimization.
 Search for a local minimum.
 Step number   1 out of a maximum of    2
 All quantities printed in internal units (Hartrees-Bohrs-Radians)
 Second derivative matrix not updated -- analytic derivatives used.
 The second derivative matrix:
                          X1        Y1        Z1        X2        Y2
           X1           0.13944
           Y1           0.05651   0.10095
           Z1          -0.13214  -0.07375   0.14090
           X2          -0.02230  -0.01510   0.00681   0.20823
           Y2          -0.02916  -0.09765   0.03376  -0.18771   0.49175
           Z2           0.02754   0.04638  -0.02656   0.04854  -0.04237
           X3          -0.12339  -0.02915   0.11768  -0.04433   0.09760
           Y3          -0.03183   0.00200   0.03435   0.10066  -0.26496
           Z3           0.11440   0.02713  -0.11472   0.02960  -0.07501
           X4           0.00625  -0.01226   0.00765  -0.14159   0.11926
           Y4           0.00448  -0.00530   0.00563   0.10215  -0.12914
           Z4          -0.00980   0.00024   0.00038  -0.08495   0.08361
                          Z2        X3        Y3        Z3        X4
           Z2           0.17097
           X3           0.01396   0.17746
           Y3          -0.07382  -0.08202   0.27331
           Z3          -0.04535  -0.14284   0.04077   0.14791
           X4          -0.09005  -0.00974   0.01319  -0.00116   0.14508
           Y4           0.06981   0.01356  -0.01035   0.00711  -0.12020
           Z4          -0.09905   0.01120  -0.00130   0.01217   0.08356
                          Y4        Z4
           Y4           0.14479
           Z4          -0.08255   0.08650
 ITU=  0
     Eigenvalues ---    0.04861   0.08183   0.17831   0.41269   0.49578
     Eigenvalues ---    0.88713
 Angle between quadratic step and forces=  48.45 degrees.
 Linear search not attempted -- first point.
 B after Tr=    -0.000097    0.000229   -0.000076
         Rot=    1.000000   -0.000000   -0.000023   -0.000056 Ang=  -0.01 deg.
 Variable       Old X    -DE/DX   Delta X   Delta X   Delta X     New X
                                 (Linear)    (Quad)   (Total)
    X1        0.84581  -0.00007   0.00000  -0.00016  -0.00038   0.84543
    Y1        0.37802   0.00007   0.00000   0.00043   0.00075   0.37877
    Z1       -1.65778   0.00003   0.00000  -0.00010  -0.00022  -1.65800
    X2       -0.35041   0.00000   0.00000   0.00020   0.00038  -0.35002
    Y2       -2.52438  -0.00000   0.00000  -0.00017   0.00002  -2.52436
    Z2       -0.19670   0.00006   0.00000   0.00034   0.00028  -0.19642
    X3       -1.41215   0.00008   0.00000   0.00033   0.00028  -1.41187
    Y3       -0.18043  -0.00002   0.00000  -0.00008  -0.00001  -0.18043
    Z3        0.57116  -0.00009   0.00000  -0.00035  -0.00036   0.57080
    X4        0.97654  -0.00002   0.00000  -0.00064  -0.00028   0.97627
    Y4       -3.78800  -0.00005   0.00000  -0.00110  -0.00076  -3.78876
    Z4        0.75317   0.00001   0.00000   0.00041   0.00029   0.75346
         Item               Value     Threshold  Converged?
 Maximum Force            0.000095     0.000450     YES
 RMS     Force            0.000052     0.000300     YES
 Maximum Displacement     0.000762     0.001800     YES
 RMS     Displacement     0.000401     0.001200     YES
 Predicted change in Energy=-9.680015D-08
 Optimization completed.
    -- Stationary point found.
 GradGradGradGradGradGradGradGradGradGradGradGradGradGradGradGradGradGrad

 Leave Link  103 at Wed Aug  3 20:20:23 2016, MaxMem=    33554432 cpu:         0.1
 (Enter /home/proyectos/fulerenos/M3C-v2.0/M3C-deps_CCC/g09-AM64L-G09RevC.01/l9999.exe)
 1\1\GINC-DEPAZ30\Freq\UB3LYP\6-311++G(3df,2p)\C2H1S1(4)\NAGUIRRE\03-Au
 g-2016\0\\#p b3lyp/6-311++G(3df,2p) freq\\b3lyp opt\\0,4\S,0.447585,0.
 200037,-0.877259\C,-0.185427,-1.335844,-0.104091\C,-0.747278,-0.095478
 ,0.302243\H,0.516765,-2.004521,0.398561\\Version=EM64L-G09RevE.01\Stat
 e=4-A\HF=-474.8076237\S2=3.761864\S2-1=0.\S2A=3.750054\RMSD=4.702e-09\
 RMSF=5.243e-05\ZeroPoint=0.0170916\Thermal=0.0202934\Dipole=0.393512,-
 0.0896738,-0.0135347\DipoleDeriv=0.0088188,-0.1310176,0.096519,-0.0621
 996,-0.1929822,0.0625099,0.0769426,0.1520223,0.0037739,-0.0021232,-0.1
 020567,0.0454054,-0.1118763,0.363235,-0.1137847,0.0816442,-0.225811,-0
 .0739872,-0.0567592,0.0931312,-0.082316,0.0996064,-0.2141403,-0.008367
 1,-0.0515132,-0.0485574,-0.0146363,0.0500635,0.1399431,-0.0596084,0.07
 44695,0.0438875,0.0596418,-0.1070736,0.1223461,0.0848497\Polar=40.7414
 404,2.3358327,45.9407776,-6.3148696,-4.6842268,39.5123005\PG=C01 [X(C2
 H1S1)]\NImag=0\\0.13944076,0.05650919,0.10095402,-0.13213663,-0.073746
 22,0.14090077,-0.02229891,-0.01510377,0.00680723,0.20822593,-0.0291592
 7,-0.09764906,0.03376250,-0.18770856,0.49174653,0.02754334,0.04637685,
 -0.02656307,0.04854427,-0.04236589,0.17096910,-0.12339247,-0.02915017,
 0.11768029,-0.04433215,0.09760426,0.01395881,0.17746309,-0.03182774,0.
 00199968,0.03435225,0.10065929,-0.26496064,-0.07381893,-0.08201898,0.2
 7330684,0.11439723,0.02713214,-0.11472184,0.02959913,-0.07500747,-0.04
 535423,-0.14283783,0.04076719,0.14790730,0.00625062,-0.01225525,0.0076
 4911,-0.14159487,0.11926357,-0.09004642,-0.00973848,0.01318744,-0.0011
 5853,0.14508273,0.00447783,-0.00530464,0.00563147,0.10215304,-0.129136
 83,0.06980796,0.01356489,-0.01034587,0.00710814,-0.12019576,0.14478734
 ,-0.00980394,0.00023723,0.00038415,-0.08495063,0.08361086,-0.09905180,
 0.01119873,-0.00130051,0.01216878,0.08355584,-0.08254758,0.08649887\\0
 .00006789,-0.00007173,-0.00003164,-0.00000179,0.00000136,-0.00005676,-
 0.00008232,0.00002039,0.00009489,0.00001622,0.00004997,-0.00000649\\\@


 ABSOLUTISM, OBSOLETISM -- IF IT WORKS, IT'S OUT OF DATE

                          -- STAFFORD BEER
 Job cpu time:       0 days  0 hours  7 minutes 54.8 seconds.
 File lengths (MBytes):  RWF=     20 Int=      0 D2E=      0 Chk=      2 Scr=      1
 Normal termination of Gaussian 09 at Wed Aug  3 20:20:23 2016.
