 Entering Gaussian System, Link 0=/home/proyectos/fulerenos/M3C-v2.0/M3C-deps_CCC/g09-AM64L-G09RevC.01/g09
 Initial command:
 /home/proyectos/fulerenos/M3C-v2.0/M3C-deps_CCC/g09-AM64L-G09RevC.01/l1.exe "/scratch/naguirre/gaussian/Gau-9884.inp" -scrdir="/scratch/naguirre/gaussian/"
 Entering Link 1 = /home/proyectos/fulerenos/M3C-v2.0/M3C-deps_CCC/g09-AM64L-G09RevC.01/l1.exe PID=      9892.
  
 Copyright (c) 1988,1990,1992,1993,1995,1998,2003,2009,2015,
            Gaussian, Inc.  All Rights Reserved.
  
 This is part of the Gaussian(R) 09 program.  It is based on
 the Gaussian(R) 03 system (copyright 2003, Gaussian, Inc.),
 the Gaussian(R) 98 system (copyright 1998, Gaussian, Inc.),
 the Gaussian(R) 94 system (copyright 1995, Gaussian, Inc.),
 the Gaussian 92(TM) system (copyright 1992, Gaussian, Inc.),
 the Gaussian 90(TM) system (copyright 1990, Gaussian, Inc.),
 the Gaussian 88(TM) system (copyright 1988, Gaussian, Inc.),
 the Gaussian 86(TM) system (copyright 1986, Carnegie Mellon
 University), and the Gaussian 82(TM) system (copyright 1983,
 Carnegie Mellon University). Gaussian is a federally registered
 trademark of Gaussian, Inc.
  
 This software contains proprietary and confidential information,
 including trade secrets, belonging to Gaussian, Inc.
  
 This software is provided under written license and may be
 used, copied, transmitted, or stored only in accord with that
 written license.
  
 The following legend is applicable only to US Government
 contracts under FAR:
  
                    RESTRICTED RIGHTS LEGEND
  
 Use, reproduction and disclosure by the US Government is
 subject to restrictions as set forth in subparagraphs (a)
 and (c) of the Commercial Computer Software - Restricted
 Rights clause in FAR 52.227-19.
  
 Gaussian, Inc.
 340 Quinnipiac St., Bldg. 40, Wallingford CT 06492
  
  
 ---------------------------------------------------------------
 Warning -- This program may not be used in any manner that
 competes with the business of Gaussian, Inc. or will provide
 assistance to any competitor of Gaussian, Inc.  The licensee
 of this program is prohibited from giving any competitor of
 Gaussian, Inc. access to this program.  By using this program,
 the user acknowledges that Gaussian, Inc. is engaged in the
 business of creating and licensing software in the field of
 computational chemistry and represents and warrants to the
 licensee that it is not a competitor of Gaussian, Inc. and that
 it will not use this program in any manner prohibited above.
 ---------------------------------------------------------------
  

 Cite this work as:
 Gaussian 09, Revision E.01,
 M. J. Frisch, G. W. Trucks, H. B. Schlegel, G. E. Scuseria, 
 M. A. Robb, J. R. Cheeseman, G. Scalmani, V. Barone, B. Mennucci, 
 G. A. Petersson, H. Nakatsuji, M. Caricato, X. Li, H. P. Hratchian, 
 A. F. Izmaylov, J. Bloino, G. Zheng, J. L. Sonnenberg, M. Hada, 
 M. Ehara, K. Toyota, R. Fukuda, J. Hasegawa, M. Ishida, T. Nakajima, 
 Y. Honda, O. Kitao, H. Nakai, T. Vreven, J. A. Montgomery, Jr., 
 J. E. Peralta, F. Ogliaro, M. Bearpark, J. J. Heyd, E. Brothers, 
 K. N. Kudin, V. N. Staroverov, T. Keith, R. Kobayashi, J. Normand, 
 K. Raghavachari, A. Rendell, J. C. Burant, S. S. Iyengar, J. Tomasi, 
 M. Cossi, N. Rega, J. M. Millam, M. Klene, J. E. Knox, J. B. Cross, 
 V. Bakken, C. Adamo, J. Jaramillo, R. Gomperts, R. E. Stratmann, 
 O. Yazyev, A. J. Austin, R. Cammi, C. Pomelli, J. W. Ochterski, 
 R. L. Martin, K. Morokuma, V. G. Zakrzewski, G. A. Voth, 
 P. Salvador, J. J. Dannenberg, S. Dapprich, A. D. Daniels, 
 O. Farkas, J. B. Foresman, J. V. Ortiz, J. Cioslowski, 
 and D. J. Fox, Gaussian, Inc., Wallingford CT, 2013.
 
 ******************************************
 Gaussian 09:  EM64L-G09RevE.01 30-Nov-2015
                 3-Aug-2016 
 ******************************************
 %NProcShared=4
 Will use up to    4 processors via shared memory.
 ------------------------------
 #p b3lyp/6-311++G(3df,2p) freq
 ------------------------------
 1/10=4,30=1,38=1/1,3;
 2/12=2,17=6,18=5,40=1/2;
 3/5=4,6=6,7=1216,11=2,16=1,25=1,30=1,71=2,74=-5,140=1/1,2,3;
 4//1;
 5/5=2,38=5,98=1/2;
 8/6=4,10=90,11=11/1;
 11/6=1,8=1,9=11,15=111,16=1/1,2,10;
 10/6=1/2;
 6/7=2,8=2,9=2,10=2,18=1,28=1/1;
 7/8=1,10=1,25=1/1,2,3,16;
 1/10=4,30=1/3;
 99//99;
 Leave Link    1 at Wed Aug  3 20:18:23 2016, MaxMem=           0 cpu:         0.3
 (Enter /home/proyectos/fulerenos/M3C-v2.0/M3C-deps_CCC/g09-AM64L-G09RevC.01/l101.exe)
 ---------
 b3lyp opt
 ---------
 Symbolic Z-matrix:
 Charge =  1 Multiplicity = 1
 S                     1.04447  -0.01796   0.10688 
 C                    -0.50693   0.2505    0.01008 
 C                    -1.83427   0.267    -0.09999 
 H                     1.50066   1.25996   0.31034 
 
 NAtoms=      4 NQM=        4 NQMF=       0 NMMI=      0 NMMIF=      0
                NMic=       0 NMicF=      0.
                    Isotopes and Nuclear Properties:
 (Nuclear quadrupole moments (NQMom) in fm**2, nuclear magnetic moments (NMagM)
  in nuclear magnetons)

  Atom         1           2           3           4
 IAtWgt=          32          12          12           1
 AtmWgt=  31.9720718  12.0000000  12.0000000   1.0078250
 NucSpn=           0           0           0           1
 AtZEff=   0.0000000   0.0000000   0.0000000   0.0000000
 NQMom=    0.0000000   0.0000000   0.0000000   0.0000000
 NMagM=    0.0000000   0.0000000   0.0000000   2.7928460
 AtZNuc=  16.0000000   6.0000000   6.0000000   1.0000000
 Leave Link  101 at Wed Aug  3 20:18:23 2016, MaxMem=    33554432 cpu:         0.3
 (Enter /home/proyectos/fulerenos/M3C-v2.0/M3C-deps_CCC/g09-AM64L-G09RevC.01/l103.exe)

 GradGradGradGradGradGradGradGradGradGradGradGradGradGradGradGradGradGrad
 Berny optimization.
 Initialization pass.
 Trust Radius=3.00D-01 FncErr=1.00D-07 GrdErr=1.00D-07
 Number of steps in this run=      2 maximum allowed number of steps=      2.
 GradGradGradGradGradGradGradGradGradGradGradGradGradGradGradGradGradGrad

 Leave Link  103 at Wed Aug  3 20:18:23 2016, MaxMem=    33554432 cpu:         0.1
 (Enter /home/proyectos/fulerenos/M3C-v2.0/M3C-deps_CCC/g09-AM64L-G09RevC.01/l202.exe)
                          Input orientation:                          
 ---------------------------------------------------------------------
 Center     Atomic      Atomic             Coordinates (Angstroms)
 Number     Number       Type             X           Y           Z
 ---------------------------------------------------------------------
      1         16           0        1.044474   -0.017955    0.106878
      2          6           0       -0.506927    0.250502    0.010080
      3          6           0       -1.834266    0.267004   -0.099994
      4          1           0        1.500658    1.259955    0.310344
 ---------------------------------------------------------------------
                    Distance matrix (angstroms):
                    1          2          3          4
     1  S    0.000000
     2  C    1.577430   0.000000
     3  C    2.900197   1.331998   0.000000
     4  H    1.372063   2.267058   3.503719   0.000000
 Stoichiometry    C2HS(1+)
 Framework group  C1[X(C2HS)]
 Deg. of freedom     6
 Full point group                 C1      NOp   1
 Largest Abelian subgroup         C1      NOp   1
 Largest concise Abelian subgroup C1      NOp   1
                         Standard orientation:                         
 ---------------------------------------------------------------------
 Center     Atomic      Atomic             Coordinates (Angstroms)
 Number     Number       Type             X           Y           Z
 ---------------------------------------------------------------------
      1         16           0        0.911184   -0.097641    0.000013
      2          6           0       -0.657750    0.065853   -0.000094
      3          6           0       -1.987653   -0.008824    0.000052
      4          1           0        1.293479    1.220087    0.000049
 ---------------------------------------------------------------------
 Rotational constants (GHZ):    280.7033090      6.2520640      6.1158466
 Leave Link  202 at Wed Aug  3 20:18:23 2016, MaxMem=    33554432 cpu:         0.0
 (Enter /home/proyectos/fulerenos/M3C-v2.0/M3C-deps_CCC/g09-AM64L-G09RevC.01/l301.exe)
 Standard basis: 6-311++G(3df,2p) (5D, 7F)
 Ernie: Thresh=  0.10000D-02 Tol=  0.10000D-05 Strict=F.
 There are   153 symmetry adapted cartesian basis functions of A   symmetry.
 There are   135 symmetry adapted basis functions of A   symmetry.
   135 basis functions,   200 primitive gaussians,   153 cartesian basis functions
    14 alpha electrons       14 beta electrons
       nuclear repulsion energy        72.5010465260 Hartrees.
 IExCor=  402 DFT=T Ex+Corr=B3LYP ExCW=0 ScaHFX=  0.200000
 ScaDFX=  0.800000  0.720000  1.000000  0.810000 ScalE2=  1.000000  1.000000
 IRadAn=      0 IRanWt=     -1 IRanGd=            0 ICorTp=0 IEmpDi=  4
 NAtoms=    4 NActive=    4 NUniq=    4 SFac= 1.00D+00 NAtFMM=   60 NAOKFM=F Big=F
 Integral buffers will be    131072 words long.
 Raffenetti 2 integral format.
 Two-electron integral symmetry is turned on.
 Leave Link  301 at Wed Aug  3 20:18:23 2016, MaxMem=    33554432 cpu:         0.2
 (Enter /home/proyectos/fulerenos/M3C-v2.0/M3C-deps_CCC/g09-AM64L-G09RevC.01/l302.exe)
 NPDir=0 NMtPBC=     1 NCelOv=     1 NCel=       1 NClECP=     1 NCelD=      1
         NCelK=      1 NCelE2=     1 NClLst=     1 CellRange=     0.0.
 One-electron integrals computed using PRISM.
 NBasis=   135 RedAO= T EigKep=  2.14D-05  NBF=   135
 NBsUse=   135 1.00D-06 EigRej= -1.00D+00 NBFU=   135
 Precomputing XC quadrature grid using
 IXCGrd= 4 IRadAn=           0 IRanWt=          -1 IRanGd=           0 AccXCQ= 0.00D+00.
 Generated NRdTot=       0 NPtTot=           0 NUsed=           0 NTot=          32
 NSgBfM=   153   153   153   153   153 MxSgAt=     4 MxSgA2=     4.
 Leave Link  302 at Wed Aug  3 20:18:24 2016, MaxMem=    33554432 cpu:         0.9
 (Enter /home/proyectos/fulerenos/M3C-v2.0/M3C-deps_CCC/g09-AM64L-G09RevC.01/l303.exe)
 DipDrv:  MaxL=1.
 Leave Link  303 at Wed Aug  3 20:18:24 2016, MaxMem=    33554432 cpu:         0.2
 (Enter /home/proyectos/fulerenos/M3C-v2.0/M3C-deps_CCC/g09-AM64L-G09RevC.01/l401.exe)
 ExpMin= 3.60D-02 ExpMax= 9.34D+04 ExpMxC= 3.17D+03 IAcc=3 IRadAn=         5 AccDes= 0.00D+00
 Harris functional with IExCor=  402 and IRadAn=       5 diagonalized for initial guess.
 HarFok:  IExCor=  402 AccDes= 0.00D+00 IRadAn=         5 IDoV= 1 UseB2=F ITyADJ=14
 ICtDFT=  3500011 ScaDFX=  1.000000  1.000000  1.000000  1.000000
 FoFCou: FMM=F IPFlag=           0 FMFlag=      100000 FMFlg1=           0
         NFxFlg=           0 DoJE=T BraDBF=F KetDBF=T FulRan=T
         wScrn=  0.000000 ICntrl=     500 IOpCl=  0 I1Cent=   200000004 NGrid=           0
         NMat0=    1 NMatS0=      1 NMatT0=    0 NMatD0=    1 NMtDS0=    0 NMtDT0=    0
 Petite list used in FoFCou.
 Harris En= -474.611347417466    
 JPrj=0 DoOrth=F DoCkMO=F.
 Leave Link  401 at Wed Aug  3 20:18:25 2016, MaxMem=    33554432 cpu:         2.9
 (Enter /home/proyectos/fulerenos/M3C-v2.0/M3C-deps_CCC/g09-AM64L-G09RevC.01/l502.exe)
 Closed shell SCF:
 Using DIIS extrapolation, IDIIS=  1040.
 Integral symmetry usage will be decided dynamically.
 IVT=       90796 IEndB=       90796 NGot=    33554432 MDV=    33503839
 LenX=    33503839 LenY=    33479989
 Requested convergence on RMS density matrix=1.00D-08 within 128 cycles.
 Requested convergence on MAX density matrix=1.00D-06.
 Requested convergence on             energy=1.00D-06.
 No special actions if energy rises.
 Fock matrices will be formed incrementally for  20 cycles.

 Cycle   1  Pass 1  IDiag  1:
 FoFJK:  IHMeth= 1 ICntrl=       0 DoSepK=F KAlg= 0 I1Cent=   0 FoldK=F
 IRaf= 990000000 NMat=   1 IRICut=       1 DoRegI=T DoRafI=F ISym2E= 0.
 FoFCou: FMM=F IPFlag=           0 FMFlag=      100000 FMFlg1=           0
         NFxFlg=           0 DoJE=F BraDBF=F KetDBF=F FulRan=T
         wScrn=  0.000000 ICntrl=       0 IOpCl=  0 I1Cent=           0 NGrid=           0
         NMat0=    1 NMatS0=      1 NMatT0=    0 NMatD0=    1 NMtDS0=    0 NMtDT0=    0
 Symmetry not used in FoFCou.
 E= -474.297033161253    
 DIIS: error= 6.87D-02 at cycle   1 NSaved=   1.
 NSaved= 1 IEnMin= 1 EnMin= -474.297033161253     IErMin= 1 ErrMin= 6.87D-02
 ErrMax= 6.87D-02  0.00D+00 EMaxC= 1.00D-01 BMatC= 1.71D-01 BMatP= 1.71D-01
 IDIUse=3 WtCom= 3.13D-01 WtEn= 6.87D-01
 Coeff-Com:  0.100D+01
 Coeff-En:   0.100D+01
 Coeff:      0.100D+01
 Gap=     0.007 Goal=   None    Shift=    0.000
 GapD=    0.007 DampG=0.250 DampE=0.500 DampFc=0.2500 IDamp=-1.
 Damping current iteration by 2.50D-01
 RMSDP=1.59D-02 MaxDP=9.24D-01              OVMax= 7.62D-01

 Cycle   2  Pass 1  IDiag  1:
 RMSU=  3.51D-03    CP:  9.24D-01
 E= -474.318995080425     Delta-E=       -0.021961919173 Rises=F Damp=T
 DIIS: error= 1.29D-02 at cycle   2 NSaved=   2.
 NSaved= 2 IEnMin= 2 EnMin= -474.318995080425     IErMin= 2 ErrMin= 1.29D-02
 ErrMax= 1.29D-02  0.00D+00 EMaxC= 1.00D-01 BMatC= 2.65D-02 BMatP= 1.71D-01
 IDIUse=3 WtCom= 8.71D-01 WtEn= 1.29D-01
 Coeff-Com: -0.218D-01 0.102D+01
 Coeff-En:   0.437D+00 0.563D+00
 Coeff:      0.372D-01 0.963D+00
 Gap=     0.039 Goal=   None    Shift=    0.000
 RMSDP=6.89D-03 MaxDP=2.37D-01 DE=-2.20D-02 OVMax= 9.82D-01

 Cycle   3  Pass 1  IDiag  1:
 RMSU=  5.72D-03    CP:  1.05D+00  3.04D-01
 E= -474.391378823288     Delta-E=       -0.072383742862 Rises=F Damp=F
 DIIS: error= 2.63D-02 at cycle   3 NSaved=   3.
 NSaved= 3 IEnMin= 3 EnMin= -474.391378823288     IErMin= 2 ErrMin= 1.29D-02
 ErrMax= 2.63D-02  0.00D+00 EMaxC= 1.00D-01 BMatC= 1.07D-01 BMatP= 2.65D-02
 IDIUse=2 WtCom= 0.00D+00 WtEn= 1.00D+00
 EnCoef did     2 forward-backward iterations
 Coeff-En:   0.146D+00 0.202D+00 0.653D+00
 Coeff:      0.146D+00 0.202D+00 0.653D+00
 Gap=     0.076 Goal=   None    Shift=    0.000
 RMSDP=1.58D-02 MaxDP=9.19D-01 DE=-7.24D-02 OVMax= 9.98D-01

 Cycle   4  Pass 1  IDiag  1:
 RMSU=  5.51D-03    CP:  7.34D-01  3.00D+00 -9.00D-02
 E= -473.301375947474     Delta-E=        1.090002875814 Rises=F Damp=F
 DIIS: error= 9.19D-02 at cycle   4 NSaved=   4.
 NSaved= 4 IEnMin= 3 EnMin= -474.391378823288     IErMin= 2 ErrMin= 1.29D-02
 ErrMax= 9.19D-02  0.00D+00 EMaxC= 1.00D-01 BMatC= 6.35D-01 BMatP= 2.65D-02
 IDIUse=2 WtCom= 0.00D+00 WtEn= 1.00D+00
 EnCoef did     2 forward-backward iterations
 Coeff-En:   0.197D+00 0.000D+00 0.674D+00 0.129D+00
 Coeff:      0.197D+00 0.000D+00 0.674D+00 0.129D+00
 Gap=    -0.028 Goal=   None    Shift=    0.000
 RMSDP=1.52D-02 MaxDP=9.99D-01 DE= 1.09D+00 OVMax= 9.99D-01

 Cycle   5  Pass 1  IDiag  1:
 RMSU=  3.64D-03    CP:  1.07D+00  3.19D-01  3.18D-01  1.34D-01
 E= -474.464325663271     Delta-E=       -1.162949715797 Rises=F Damp=F
 DIIS: error= 1.28D-02 at cycle   5 NSaved=   5.
 NSaved= 5 IEnMin= 5 EnMin= -474.464325663271     IErMin= 5 ErrMin= 1.28D-02
 ErrMax= 1.28D-02  0.00D+00 EMaxC= 1.00D-01 BMatC= 3.92D-02 BMatP= 2.65D-02
 IDIUse=2 WtCom= 0.00D+00 WtEn= 1.00D+00
 Coeff-En:   0.000D+00 0.000D+00 0.317D+00 0.000D+00 0.683D+00
 Coeff:      0.000D+00 0.000D+00 0.317D+00 0.000D+00 0.683D+00
 Gap=     0.115 Goal=   None    Shift=    0.000
 RMSDP=2.99D-03 MaxDP=1.18D-01 DE=-1.16D+00 OVMax= 1.55D-01

 Cycle   6  Pass 1  IDiag  1:
 RMSU=  9.41D-04    CP:  1.07D+00  9.60D-02  6.20D-01  3.55D-02  4.40D-01
 E= -474.497695989614     Delta-E=       -0.033370326344 Rises=F Damp=F
 DIIS: error= 1.50D-02 at cycle   6 NSaved=   6.
 NSaved= 6 IEnMin= 6 EnMin= -474.497695989614     IErMin= 5 ErrMin= 1.28D-02
 ErrMax= 1.50D-02  0.00D+00 EMaxC= 1.00D-01 BMatC= 9.33D-03 BMatP= 2.65D-02
 IDIUse=3 WtCom= 8.50D-01 WtEn= 1.50D-01
 Coeff-Com: -0.958D-01 0.944D-01 0.766D-01-0.489D-02 0.294D+00 0.636D+00
 Coeff-En:   0.000D+00 0.000D+00 0.000D+00 0.000D+00 0.234D+00 0.766D+00
 Coeff:     -0.814D-01 0.802D-01 0.651D-01-0.416D-02 0.285D+00 0.655D+00
 Gap=     0.089 Goal=   None    Shift=    0.000
 RMSDP=7.64D-04 MaxDP=2.19D-02 DE=-3.34D-02 OVMax= 6.46D-02

 Cycle   7  Pass 1  IDiag  1:
 RMSU=  2.37D-04    CP:  1.07D+00  2.02D-01  6.10D-01  5.07D-02  5.74D-01
                    CP:  6.01D-01
 E= -474.508972373433     Delta-E=       -0.011276383819 Rises=F Damp=F
 DIIS: error= 1.37D-03 at cycle   7 NSaved=   7.
 NSaved= 7 IEnMin= 7 EnMin= -474.508972373433     IErMin= 7 ErrMin= 1.37D-03
 ErrMax= 1.37D-03  0.00D+00 EMaxC= 1.00D-01 BMatC= 2.74D-04 BMatP= 9.33D-03
 IDIUse=3 WtCom= 9.86D-01 WtEn= 1.37D-02
 Coeff-Com: -0.249D-02-0.237D-02-0.340D-01 0.257D-03 0.350D-01 0.182D+00
 Coeff-Com:  0.822D+00
 Coeff-En:   0.000D+00 0.000D+00 0.000D+00 0.000D+00 0.000D+00 0.000D+00
 Coeff-En:   0.100D+01
 Coeff:     -0.246D-02-0.234D-02-0.335D-01 0.254D-03 0.345D-01 0.179D+00
 Coeff:      0.825D+00
 Gap=     0.093 Goal=   None    Shift=    0.000
 RMSDP=1.75D-04 MaxDP=4.95D-03 DE=-1.13D-02 OVMax= 6.52D-03

 Cycle   8  Pass 1  IDiag  1:
 RMSU=  5.34D-05    CP:  1.07D+00  1.77D-01  5.90D-01  4.90D-02  5.72D-01
                    CP:  6.95D-01  1.02D+00
 E= -474.509240794159     Delta-E=       -0.000268420726 Rises=F Damp=F
 DIIS: error= 5.18D-05 at cycle   8 NSaved=   8.
 NSaved= 8 IEnMin= 8 EnMin= -474.509240794159     IErMin= 8 ErrMin= 5.18D-05
 ErrMax= 5.18D-05  0.00D+00 EMaxC= 1.00D-01 BMatC= 5.65D-07 BMatP= 2.74D-04
 IDIUse=1 WtCom= 1.00D+00 WtEn= 0.00D+00
 Coeff-Com:  0.137D-02-0.164D-02-0.661D-02-0.845D-04-0.157D-02 0.120D-01
 Coeff-Com:  0.959D-01 0.901D+00
 Coeff:      0.137D-02-0.164D-02-0.661D-02-0.845D-04-0.157D-02 0.120D-01
 Coeff:      0.959D-01 0.901D+00
 Gap=     0.093 Goal=   None    Shift=    0.000
 RMSDP=1.67D-05 MaxDP=8.32D-04 DE=-2.68D-04 OVMax= 7.32D-04

 Cycle   9  Pass 1  IDiag  1:
 RMSU=  1.12D-05    CP:  1.07D+00  1.75D-01  5.89D-01  4.87D-02  5.73D-01
                    CP:  6.98D-01  1.05D+00  1.03D+00
 E= -474.509241064689     Delta-E=       -0.000000270529 Rises=F Damp=F
 DIIS: error= 6.34D-05 at cycle   9 NSaved=   9.
 NSaved= 9 IEnMin= 9 EnMin= -474.509241064689     IErMin= 8 ErrMin= 5.18D-05
 ErrMax= 6.34D-05  0.00D+00 EMaxC= 1.00D-01 BMatC= 3.31D-07 BMatP= 5.65D-07
 IDIUse=1 WtCom= 1.00D+00 WtEn= 0.00D+00
 Coeff-Com:  0.103D-02-0.112D-02-0.474D-03 0.192D-04-0.122D-02-0.158D-02
 Coeff-Com: -0.752D-02 0.308D+00 0.702D+00
 Coeff:      0.103D-02-0.112D-02-0.474D-03 0.192D-04-0.122D-02-0.158D-02
 Coeff:     -0.752D-02 0.308D+00 0.702D+00
 Gap=     0.093 Goal=   None    Shift=    0.000
 RMSDP=6.12D-06 MaxDP=1.44D-04 DE=-2.71D-07 OVMax= 1.85D-04

 Cycle  10  Pass 1  IDiag  1:
 RMSU=  3.12D-06    CP:  1.07D+00  1.75D-01  5.89D-01  4.84D-02  5.72D-01
                    CP:  7.00D-01  1.05D+00  1.07D+00  9.58D-01
 E= -474.509241442744     Delta-E=       -0.000000378055 Rises=F Damp=F
 DIIS: error= 2.43D-05 at cycle  10 NSaved=  10.
 NSaved=10 IEnMin=10 EnMin= -474.509241442744     IErMin=10 ErrMin= 2.43D-05
 ErrMax= 2.43D-05  0.00D+00 EMaxC= 1.00D-01 BMatC= 2.61D-08 BMatP= 3.31D-07
 IDIUse=1 WtCom= 1.00D+00 WtEn= 0.00D+00
 Coeff-Com:  0.429D-03-0.530D-03 0.478D-03 0.509D-04-0.494D-04-0.100D-02
 Coeff-Com: -0.924D-02 0.113D-01 0.156D+00 0.842D+00
 Coeff:      0.429D-03-0.530D-03 0.478D-03 0.509D-04-0.494D-04-0.100D-02
 Coeff:     -0.924D-02 0.113D-01 0.156D+00 0.842D+00
 Gap=     0.093 Goal=   None    Shift=    0.000
 RMSDP=2.63D-06 MaxDP=9.69D-05 DE=-3.78D-07 OVMax= 1.03D-04

 Cycle  11  Pass 1  IDiag  1:
 RMSU=  1.09D-06    CP:  1.07D+00  1.74D-01  5.89D-01  4.84D-02  5.72D-01
                    CP:  7.00D-01  1.05D+00  1.08D+00  9.84D-01  8.41D-01
 E= -474.509241480607     Delta-E=       -0.000000037864 Rises=F Damp=F
 DIIS: error= 2.42D-06 at cycle  11 NSaved=  11.
 NSaved=11 IEnMin=11 EnMin= -474.509241480607     IErMin=11 ErrMin= 2.42D-06
 ErrMax= 2.42D-06  0.00D+00 EMaxC= 1.00D-01 BMatC= 9.89D-10 BMatP= 2.61D-08
 IDIUse=1 WtCom= 1.00D+00 WtEn= 0.00D+00
 Coeff-Com: -0.137D-05 0.223D-04-0.385D-06-0.145D-05 0.150D-03 0.423D-03
 Coeff-Com:  0.250D-02-0.108D-01-0.306D-01 0.169D+00 0.869D+00
 Coeff:     -0.137D-05 0.223D-04-0.385D-06-0.145D-05 0.150D-03 0.423D-03
 Coeff:      0.250D-02-0.108D-01-0.306D-01 0.169D+00 0.869D+00
 Gap=     0.093 Goal=   None    Shift=    0.000
 RMSDP=5.59D-07 MaxDP=1.99D-05 DE=-3.79D-08 OVMax= 1.72D-05

 Cycle  12  Pass 1  IDiag  1:
 RMSU=  2.11D-07    CP:  1.07D+00  1.74D-01  5.89D-01  4.84D-02  5.72D-01
                    CP:  7.00D-01  1.05D+00  1.08D+00  9.77D-01  9.01D-01
                    CP:  8.71D-01
 E= -474.509241481675     Delta-E=       -0.000000001068 Rises=F Damp=F
 DIIS: error= 9.04D-07 at cycle  12 NSaved=  12.
 NSaved=12 IEnMin=12 EnMin= -474.509241481675     IErMin=12 ErrMin= 9.04D-07
 ErrMax= 9.04D-07  0.00D+00 EMaxC= 1.00D-01 BMatC= 7.22D-11 BMatP= 9.89D-10
 IDIUse=1 WtCom= 1.00D+00 WtEn= 0.00D+00
 Coeff-Com: -0.376D-05 0.446D-05-0.224D-04-0.292D-06 0.317D-04 0.857D-04
 Coeff-Com:  0.779D-03-0.212D-02-0.970D-02 0.191D-01 0.245D+00 0.747D+00
 Coeff:     -0.376D-05 0.446D-05-0.224D-04-0.292D-06 0.317D-04 0.857D-04
 Coeff:      0.779D-03-0.212D-02-0.970D-02 0.191D-01 0.245D+00 0.747D+00
 Gap=     0.093 Goal=   None    Shift=    0.000
 RMSDP=8.65D-08 MaxDP=3.03D-06 DE=-1.07D-09 OVMax= 2.79D-06

 Cycle  13  Pass 1  IDiag  1:
 RMSU=  3.33D-08    CP:  1.07D+00  1.74D-01  5.89D-01  4.84D-02  5.72D-01
                    CP:  7.00D-01  1.05D+00  1.08D+00  9.78D-01  8.94D-01
                    CP:  8.95D-01  8.73D-01
 E= -474.509241481746     Delta-E=       -0.000000000070 Rises=F Damp=F
 DIIS: error= 1.94D-07 at cycle  13 NSaved=  13.
 NSaved=13 IEnMin=13 EnMin= -474.509241481746     IErMin=13 ErrMin= 1.94D-07
 ErrMax= 1.94D-07  0.00D+00 EMaxC= 1.00D-01 BMatC= 1.92D-12 BMatP= 7.22D-11
 IDIUse=1 WtCom= 1.00D+00 WtEn= 0.00D+00
 Coeff-Com: -0.221D-05 0.291D-05-0.250D-05-0.281D-06 0.163D-05 0.159D-05
 Coeff-Com: -0.213D-04 0.326D-03 0.783D-03-0.115D-02-0.424D-02 0.420D-01
 Coeff-Com:  0.962D+00
 Coeff:     -0.221D-05 0.291D-05-0.250D-05-0.281D-06 0.163D-05 0.159D-05
 Coeff:     -0.213D-04 0.326D-03 0.783D-03-0.115D-02-0.424D-02 0.420D-01
 Coeff:      0.962D+00
 Gap=     0.093 Goal=   None    Shift=    0.000
 RMSDP=2.00D-08 MaxDP=8.15D-07 DE=-7.03D-11 OVMax= 8.99D-07

 Cycle  14  Pass 1  IDiag  1:
 RMSU=  6.22D-09    CP:  1.07D+00  1.74D-01  5.89D-01  4.84D-02  5.72D-01
                    CP:  7.00D-01  1.05D+00  1.08D+00  9.78D-01  8.93D-01
                    CP:  8.92D-01  8.92D-01  1.03D+00
 E= -474.509241481745     Delta-E=        0.000000000001 Rises=F Damp=F
 DIIS: error= 3.14D-08 at cycle  14 NSaved=  14.
 NSaved=14 IEnMin=13 EnMin= -474.509241481746     IErMin=14 ErrMin= 3.14D-08
 ErrMax= 3.14D-08  0.00D+00 EMaxC= 1.00D-01 BMatC= 9.39D-14 BMatP= 1.92D-12
 IDIUse=1 WtCom= 1.00D+00 WtEn= 0.00D+00
 Coeff-Com: -0.290D-06 0.373D-06 0.133D-07-0.521D-07 0.108D-07-0.232D-05
 Coeff-Com: -0.292D-04 0.489D-04 0.211D-03-0.199D-03-0.380D-02-0.480D-02
 Coeff-Com:  0.169D+00 0.839D+00
 Coeff:     -0.290D-06 0.373D-06 0.133D-07-0.521D-07 0.108D-07-0.232D-05
 Coeff:     -0.292D-04 0.489D-04 0.211D-03-0.199D-03-0.380D-02-0.480D-02
 Coeff:      0.169D+00 0.839D+00
 Gap=     0.093 Goal=   None    Shift=    0.000
 RMSDP=4.73D-09 MaxDP=1.91D-07 DE= 6.82D-13 OVMax= 1.53D-07

 SCF Done:  E(RB3LYP) =  -474.509241482     A.U. after   14 cycles
            NFock= 14  Conv=0.47D-08     -V/T= 2.0019
 KE= 4.736213677097D+02 PE=-1.260793511587D+03 EE= 2.401618558701D+02
 Leave Link  502 at Wed Aug  3 20:18:46 2016, MaxMem=    33554432 cpu:        81.9
 (Enter /home/proyectos/fulerenos/M3C-v2.0/M3C-deps_CCC/g09-AM64L-G09RevC.01/l801.exe)
 DoSCS=F DFT=T ScalE2(SS,OS)=  1.000000  1.000000
 Range of M.O.s used for correlation:     1   135
 NBasis=   135 NAE=    14 NBE=    14 NFC=     0 NFV=     0
 NROrb=    135 NOA=    14 NOB=    14 NVA=   121 NVB=   121

 **** Warning!!: The largest alpha MO coefficient is  0.67486463D+02


 **** Warning!!: The smallest alpha delta epsilon is  0.92562797D-01

 Leave Link  801 at Wed Aug  3 20:18:46 2016, MaxMem=    33554432 cpu:         0.1
 (Enter /home/proyectos/fulerenos/M3C-v2.0/M3C-deps_CCC/g09-AM64L-G09RevC.01/l1101.exe)
 Using compressed storage, NAtomX=     4.
 Will process      5 centers per pass.
 Leave Link 1101 at Wed Aug  3 20:18:46 2016, MaxMem=    33554432 cpu:         0.9
 (Enter /home/proyectos/fulerenos/M3C-v2.0/M3C-deps_CCC/g09-AM64L-G09RevC.01/l1102.exe)
 Symmetrizing basis deriv contribution to polar:
 IMax=3 JMax=2 DiffMx= 0.00D+00
 Leave Link 1102 at Wed Aug  3 20:18:46 2016, MaxMem=    33554432 cpu:         0.1
 (Enter /home/proyectos/fulerenos/M3C-v2.0/M3C-deps_CCC/g09-AM64L-G09RevC.01/l1110.exe)
 Forming Gx(P) for the SCF density, NAtomX=     4.
 Integral derivatives from FoFJK, PRISM(SPDF).
 Do as many integral derivatives as possible in FoFJK.
 G2DrvN: MDV=      33554296.
 G2DrvN: will do     5 centers at a time, making    1 passes.
 Calling FoFCou, ICntrl=  3107 FMM=F I1Cent=   0 AccDes= 0.00D+00.
 FoFJK:  IHMeth= 1 ICntrl=    3107 DoSepK=F KAlg= 0 I1Cent=   0 FoldK=F
 IRaf=         0 NMat=   1 IRICut=       1 DoRegI=T DoRafI=F ISym2E= 0.
 FoFCou: FMM=F IPFlag=           0 FMFlag=      100000 FMFlg1=           0
         NFxFlg=           0 DoJE=F BraDBF=F KetDBF=F FulRan=T
         wScrn=  0.000000 ICntrl=    3107 IOpCl=  0 I1Cent=           0 NGrid=           0
         NMat0=    1 NMatS0=      1 NMatT0=    0 NMatD0=    1 NMtDS0=    0 NMtDT0=    0
 Symmetry not used in FoFCou.
 End of G2Drv F.D. properties file   721 does not exist.
 End of G2Drv F.D. properties file   722 does not exist.
 End of G2Drv F.D. properties file   788 does not exist.
 Leave Link 1110 at Wed Aug  3 20:18:57 2016, MaxMem=    33554432 cpu:        43.9
 (Enter /home/proyectos/fulerenos/M3C-v2.0/M3C-deps_CCC/g09-AM64L-G09RevC.01/l1002.exe)
 Minotr:  Closed shell wavefunction.
          IDoAtm=1111
          Direct CPHF calculation.
          Differentiating once with respect to electric field.
                with respect to dipole field.
          Differentiating once with respect to nuclear coordinates.
          Requested convergence is 1.0D-08 RMS, and 1.0D-07 maximum.
          Secondary convergence is 1.0D-12 RMS, and 1.0D-12 maximum.
          NewPWx=T KeepS1=F KeepF1=F KeepIn=T MapXYZ=F SortEE=F KeepMc=T.
          MDV=      33554253 using IRadAn=       2.
 Generate precomputed XC quadrature information.
          Solving linear equations simultaneously, MaxMat=       0.
 FoFJK:  IHMeth= 1 ICntrl=       0 DoSepK=F KAlg= 0 I1Cent=   0 FoldK=F
 IRaf= 990000000 NMat=  15 IRICut=      37 DoRegI=T DoRafI=T ISym2E= 2.
 FoFCou: FMM=F IPFlag=           0 FMFlag=      100000 FMFlg1=           0
         NFxFlg=           0 DoJE=F BraDBF=F KetDBF=F FulRan=T
         wScrn=  0.000000 ICntrl=       0 IOpCl=  0 I1Cent=           0 NGrid=           0
         NMat0=   15 NMatS0=     15 NMatT0=    0 NMatD0=   15 NMtDS0=    0 NMtDT0=    0
 Integrals replicated using symmetry in FoFCou.
          There are    15 degrees of freedom in the 1st order CPHF.  IDoFFX=6 NUNeed=     3.
     13 vectors produced by pass  0 Test12= 1.13D-14 6.67D-09 XBig12= 1.38D+02 9.14D+00.
 AX will form    13 AO Fock derivatives at one time.
     12 vectors produced by pass  1 Test12= 1.13D-14 6.67D-09 XBig12= 3.97D+01 1.88D+00.
     12 vectors produced by pass  2 Test12= 1.13D-14 6.67D-09 XBig12= 5.51D-01 1.80D-01.
     12 vectors produced by pass  3 Test12= 1.13D-14 6.67D-09 XBig12= 3.85D-03 1.88D-02.
     12 vectors produced by pass  4 Test12= 1.13D-14 6.67D-09 XBig12= 3.01D-05 1.35D-03.
     12 vectors produced by pass  5 Test12= 1.13D-14 6.67D-09 XBig12= 8.38D-08 6.21D-05.
      9 vectors produced by pass  6 Test12= 1.13D-14 6.67D-09 XBig12= 1.55D-10 2.27D-06.
      3 vectors produced by pass  7 Test12= 1.13D-14 6.67D-09 XBig12= 1.53D-13 6.60D-08.
      2 vectors produced by pass  8 Test12= 1.13D-14 6.67D-09 XBig12= 8.10D-15 3.35D-08.
      1 vectors produced by pass  9 Test12= 1.13D-14 6.67D-09 XBig12= 3.19D-16 7.63D-09.
 InvSVY:  IOpt=1 It=  1 EMax= 1.89D-15
 Solved reduced A of dimension    88 with    15 vectors.
 FullF1:  Do perturbations    1 to     3.
 Isotropic polarizability for W=    0.000000       37.48 Bohr**3.
 End of Minotr F.D. properties file   721 does not exist.
 End of Minotr F.D. properties file   722 does not exist.
 End of Minotr F.D. properties file   788 does not exist.
 Leave Link 1002 at Wed Aug  3 20:19:26 2016, MaxMem=    33554432 cpu:       113.8
 (Enter /home/proyectos/fulerenos/M3C-v2.0/M3C-deps_CCC/g09-AM64L-G09RevC.01/l601.exe)
 Copying SCF densities to generalized density rwf, IOpCl= 0 IROHF=0.

 **********************************************************************

            Population analysis using the SCF density.

 **********************************************************************

 Orbital symmetries:
       Occupied  (A) (A) (A) (A) (A) (A) (A) (A) (A) (A) (A) (A)
                 (A) (A)
       Virtual   (A) (A) (A) (A) (A) (A) (A) (A) (A) (A) (A) (A)
                 (A) (A) (A) (A) (A) (A) (A) (A) (A) (A) (A) (A)
                 (A) (A) (A) (A) (A) (A) (A) (A) (A) (A) (A) (A)
                 (A) (A) (A) (A) (A) (A) (A) (A) (A) (A) (A) (A)
                 (A) (A) (A) (A) (A) (A) (A) (A) (A) (A) (A) (A)
                 (A) (A) (A) (A) (A) (A) (A) (A) (A) (A) (A) (A)
                 (A) (A) (A) (A) (A) (A) (A) (A) (A) (A) (A) (A)
                 (A) (A) (A) (A) (A) (A) (A) (A) (A) (A) (A) (A)
                 (A) (A) (A) (A) (A) (A) (A) (A) (A) (A) (A) (A)
                 (A) (A) (A) (A) (A) (A) (A) (A) (A) (A) (A) (A)
                 (A)
 The electronic state is 1-A.
 Alpha  occ. eigenvalues --  -89.23977 -10.53512 -10.51800  -8.32055  -6.28165
 Alpha  occ. eigenvalues --   -6.28159  -6.27741  -1.14883  -1.01583  -0.82294
 Alpha  occ. eigenvalues --   -0.71052  -0.65450  -0.56252  -0.56017
 Alpha virt. eigenvalues --   -0.46761  -0.30148  -0.25617  -0.23284  -0.21676
 Alpha virt. eigenvalues --   -0.15743  -0.11878  -0.11242  -0.10986  -0.08717
 Alpha virt. eigenvalues --   -0.07075  -0.06341  -0.05812  -0.04594  -0.01851
 Alpha virt. eigenvalues --   -0.00328  -0.00014   0.00479   0.05426   0.06057
 Alpha virt. eigenvalues --    0.07274   0.08492   0.09225   0.09971   0.10836
 Alpha virt. eigenvalues --    0.12558   0.16310   0.19103   0.22050   0.25622
 Alpha virt. eigenvalues --    0.30617   0.31336   0.32714   0.33072   0.33778
 Alpha virt. eigenvalues --    0.35387   0.35817   0.40135   0.45414   0.52067
 Alpha virt. eigenvalues --    0.53148   0.53994   0.54148   0.56350   0.61195
 Alpha virt. eigenvalues --    0.63612   0.66034   0.70056   0.73758   0.79553
 Alpha virt. eigenvalues --    0.82393   0.83812   1.00657   1.10216   1.11811
 Alpha virt. eigenvalues --    1.16480   1.19617   1.20371   1.24131   1.33234
 Alpha virt. eigenvalues --    1.38258   1.42499   1.44099   1.52059   1.53520
 Alpha virt. eigenvalues --    1.57432   1.59525   1.65686   1.72570   1.80863
 Alpha virt. eigenvalues --    1.91093   2.02800   2.06404   2.08308   2.35151
 Alpha virt. eigenvalues --    2.37153   2.38963   2.41665   2.42022   2.45298
 Alpha virt. eigenvalues --    2.48534   2.53176   2.57397   2.59215   2.60333
 Alpha virt. eigenvalues --    2.71078   2.72089   3.04008   3.07616   3.21565
 Alpha virt. eigenvalues --    3.32025   3.32609   3.51517   3.63800   3.72744
 Alpha virt. eigenvalues --    3.79168   4.16317   4.19234   4.29307   4.37350
 Alpha virt. eigenvalues --    4.65639   4.82236   4.91305   5.46874   6.62677
 Alpha virt. eigenvalues --    6.63469   6.75564   6.76324   6.85431   6.87777
 Alpha virt. eigenvalues --    6.90258   7.19595   7.22393   7.66642   8.46064
 Alpha virt. eigenvalues --   17.10709  17.23402  17.67675  23.49837  25.38598
 Alpha virt. eigenvalues --  189.28588
          Condensed to atoms (all electrons):
               1          2          3          4
     1  S   15.775659   0.505320  -0.718667   0.266528
     2  C    0.505320   6.988347  -1.916350  -0.012882
     3  C   -0.718667  -1.916350   8.456348   0.027056
     4  H    0.266528  -0.012882   0.027056   0.477636
 Mulliken charges:
               1
     1  S    0.171160
     2  C    0.435565
     3  C    0.151613
     4  H    0.241663
 Sum of Mulliken charges =   1.00000
 Mulliken charges with hydrogens summed into heavy atoms:
               1
     1  S    0.412822
     2  C    0.435565
     3  C    0.151613
 APT charges:
               1
     1  S    0.582449
     2  C   -0.245972
     3  C    0.515316
     4  H    0.148208
 Sum of APT charges =   1.00000
 APT charges with hydrogens summed into heavy atoms:
               1
     1  S    0.730657
     2  C   -0.245972
     3  C    0.515316
 Electronic spatial extent (au):  <R**2>=            195.6418
 Charge=              1.0000 electrons
 Dipole moment (field-independent basis, Debye):
    X=              2.6549    Y=              0.9629    Z=             -0.0002  Tot=              2.8241
 Quadrupole moment (field-independent basis, Debye-Ang):
   XX=            -16.4143   YY=            -20.3552   ZZ=            -20.1968
   XY=              1.6548   XZ=              0.0009   YZ=              0.0001
 Traceless Quadrupole moment (field-independent basis, Debye-Ang):
   XX=              2.5745   YY=             -1.3664   ZZ=             -1.2080
   XY=              1.6548   XZ=              0.0009   YZ=              0.0001
 Octapole moment (field-independent basis, Debye-Ang**2):
  XXX=             22.4271  YYY=              2.3193  ZZZ=             -0.0001  XYY=              7.0131
  XXY=              2.6537  XXZ=             -0.0018  XZZ=              2.3119  YZZ=             -0.0325
  YYZ=              0.0001  XYZ=              0.0001
 Hexadecapole moment (field-independent basis, Debye-Ang**3):
 XXXX=           -240.2833 YYYY=            -26.0035 ZZZZ=            -20.8937 XXXY=              3.7293
 XXXZ=              0.0059 YYYX=              4.2010 YYYZ=              0.0002 ZZZX=              0.0011
 ZZZY=              0.0000 XXYY=            -40.5859 XXZZ=            -37.1409 YYZZ=             -8.5696
 XXYZ=              0.0001 YYXZ=              0.0004 ZZXY=              0.1349
 N-N= 7.250104652599D+01 E-N=-1.260793511717D+03  KE= 4.736213677097D+02
  Exact polarizability:  59.568   2.299  27.229   0.002  -0.000  25.631
 Approx polarizability: 132.607   3.507  41.970   0.004  -0.000  40.288
 No NMR shielding tensors so no spin-rotation constants.
 Leave Link  601 at Wed Aug  3 20:19:26 2016, MaxMem=    33554432 cpu:         0.8
 (Enter /home/proyectos/fulerenos/M3C-v2.0/M3C-deps_CCC/g09-AM64L-G09RevC.01/l701.exe)
 Compute integral second derivatives.
 ... and contract with generalized density number  0.
 Leave Link  701 at Wed Aug  3 20:19:26 2016, MaxMem=    33554432 cpu:         1.4
 (Enter /home/proyectos/fulerenos/M3C-v2.0/M3C-deps_CCC/g09-AM64L-G09RevC.01/l702.exe)
 L702 exits ... SP integral derivatives will be done elsewhere.
 Leave Link  702 at Wed Aug  3 20:19:26 2016, MaxMem=    33554432 cpu:         0.1
 (Enter /home/proyectos/fulerenos/M3C-v2.0/M3C-deps_CCC/g09-AM64L-G09RevC.01/l703.exe)
 Compute integral second derivatives, UseDBF=F ICtDFT=           0.
 Integral derivatives from FoFJK, PRISM(SPDF).
 Calling FoFJK, ICntrl=    100127 FMM=F ISym2X=0 I1Cent= 0 IOpClX= 0 NMat=1 NMatS=1 NMatT=0.
 FoFJK:  IHMeth= 1 ICntrl=  100127 DoSepK=F KAlg= 0 I1Cent=   0 FoldK=F
 IRaf=         0 NMat=   1 IRICut=       1 DoRegI=T DoRafI=F ISym2E= 0.
 FoFCou: FMM=F IPFlag=           0 FMFlag=      100000 FMFlg1=         800
         NFxFlg=           0 DoJE=F BraDBF=F KetDBF=F FulRan=T
         wScrn=  0.000000 ICntrl=  100127 IOpCl=  0 I1Cent=           0 NGrid=           0
         NMat0=    1 NMatS0=      1 NMatT0=    0 NMatD0=    1 NMtDS0=    0 NMtDT0=    0
 Symmetry not used in FoFCou.
 Leave Link  703 at Wed Aug  3 20:19:53 2016, MaxMem=    33554432 cpu:       104.1
 (Enter /home/proyectos/fulerenos/M3C-v2.0/M3C-deps_CCC/g09-AM64L-G09RevC.01/l716.exe)
 Dipole        = 1.04451037D+00 3.78836331D-01-8.40843947D-05
 Polarizability= 5.95679923D+01 2.29872245D+00 2.72294503D+01
                 1.51154800D-03-6.30251304D-05 2.56309972D+01
 Full mass-weighted force constant matrix:
 Low frequencies ---  -30.7324  -12.8183  -12.0746   -0.0032    0.0012    0.0032
 Low frequencies ---  112.7252  217.6706  816.3989
 Diagonal vibrational polarizability:
        4.0667780       1.0133584      18.0297419
 Harmonic frequencies (cm**-1), IR intensities (KM/Mole), Raman scattering
 activities (A**4/AMU), depolarization ratios for plane and unpolarized
 incident light, reduced masses (AMU), force constants (mDyne/A),
 and normal coordinates:
                      1                      2                      3
                      A                      A                      A
 Frequencies --    112.6812               217.6691               816.3989
 Red. masses --      7.2428                 7.0016                14.8326
 Frc consts  --      0.0542                 0.1955                 5.8247
 IR Inten    --      8.5067                 1.9870                19.0103
  Atom  AN      X      Y      Z        X      Y      Z        X      Y      Z
     1  16     0.00   0.00  -0.09    -0.06  -0.09   0.00    -0.42   0.04  -0.00
     2   6     0.00  -0.00   0.65     0.02   0.61  -0.00     0.35  -0.14   0.00
     3   6    -0.00   0.00  -0.36     0.07  -0.36   0.00     0.78   0.04  -0.00
     4   1     0.00   0.00  -0.67     0.63  -0.28  -0.00    -0.25   0.03  -0.00
                      4                      5                      6
                      A                      A                      A
 Frequencies --    994.2696              1762.2252              2473.4149
 Red. masses --      1.1350                11.7579                 1.0399
 Frc consts  --      0.6611                21.5130                 3.7483
 IR Inten    --     10.5640               308.7870                50.1290
  Atom  AN      X      Y      Z        X      Y      Z        X      Y      Z
     1  16    -0.02   0.04  -0.00    -0.11   0.00  -0.00    -0.01  -0.03  -0.00
     2   6    -0.00  -0.08  -0.00     0.82   0.01  -0.00    -0.01   0.00  -0.00
     3   6    -0.02   0.00   0.00    -0.52  -0.03   0.00     0.00  -0.00  -0.00
     4   1     0.97  -0.22   0.00    -0.18   0.09   0.00     0.26   0.97   0.00

 -------------------
 - Thermochemistry -
 -------------------
 Temperature   298.150 Kelvin.  Pressure   1.00000 Atm.
 Atom     1 has atomic number 16 and mass  31.97207
 Atom     2 has atomic number  6 and mass  12.00000
 Atom     3 has atomic number  6 and mass  12.00000
 Atom     4 has atomic number  1 and mass   1.00783
 Molecular mass:    56.97990 amu.
 Principal axes and moments of inertia in atomic units:
                           1         2         3
     Eigenvalues --     6.42935 288.66327 295.09262
           X            0.99980   0.02014   0.00000
           Y           -0.02014   0.99980   0.00003
           Z           -0.00000  -0.00003   1.00000
 This molecule is an asymmetric top.
 Rotational symmetry number  1.
 Rotational temperatures (Kelvin)     13.47162     0.30005     0.29351
 Rotational constants (GHZ):         280.70331     6.25206     6.11585
 Zero-point vibrational energy      38140.9 (Joules/Mol)
                                    9.11589 (Kcal/Mol)
 Warning -- explicit consideration of   2 degrees of freedom as
           vibrations may cause significant error
 Vibrational temperatures:    162.12   313.18  1174.61  1430.53  2535.45
          (Kelvin)           3558.69
 
 Zero-point correction=                           0.014527 (Hartree/Particle)
 Thermal correction to Energy=                    0.018717
 Thermal correction to Enthalpy=                  0.019661
 Thermal correction to Gibbs Free Energy=        -0.010970
 Sum of electronic and zero-point Energies=           -474.494714
 Sum of electronic and thermal Energies=              -474.490524
 Sum of electronic and thermal Enthalpies=            -474.489580
 Sum of electronic and thermal Free Energies=         -474.520211
 
                     E (Thermal)             CV                S
                      KCal/Mol        Cal/Mol-Kelvin    Cal/Mol-Kelvin
 Total                   11.745             10.753             64.468
 Electronic               0.000              0.000              0.000
 Translational            0.889              2.981             38.041
 Rotational               0.889              2.981             20.932
 Vibrational              9.968              4.792              5.495
 Vibration     1          0.607              1.939              3.222
 Vibration     2          0.646              1.814              1.978
                       Q            Log10(Q)             Ln(Q)
 Total Bot       0.111085D+06          5.045656         11.618052
 Total V=0       0.534125D+12         11.727643         27.003896
 Vib (Bot)       0.784356D-06         -6.105487        -14.058403
 Vib (Bot)    1  0.181657D+01          0.259253          0.596952
 Vib (Bot)    2  0.909620D+00         -0.041140         -0.094729
 Vib (V=0)       0.377138D+01          0.576500          1.327441
 Vib (V=0)    1  0.238413D+01          0.377330          0.868833
 Vib (V=0)    2  0.153798D+01          0.186951          0.430472
 Electronic      0.100000D+01          0.000000          0.000000
 Translational   0.169059D+08          7.228038         16.643172
 Rotational      0.837732D+04          3.923105          9.033283
 
                                                              b3lyp opt
                                                             IR Spectrum
 
     2                                    1                                                                                          
     4                                    7                                      9         8                             2     1     
     7                                    6                                      9         1                             1     1     
     3                                    2                                      4         6                             8     3     
 
     X                                    X                                      X         X                             X     X     
     X                                    X                                                                                          
     X                                    X                                                                                          
                                          X                                                                                          
                                          X                                                                                          
                                          X                                                                                          
                                          X                                                                                          
                                          X                                                                                          
                                          X                                                                                          
                                          X                                                                                          
                                          X                                                                                          
                                          X                                                                                          
                                          X                                                                                          
                                          X                                                                                          
                                          X                                                                                          
                                          X                                                                                          
                                          X                                                                                          
                                          X                                                                                          
                                          X                                                                                          
                                          X                                                                                          
 
 ***** Axes restored to original set *****
 -------------------------------------------------------------------
 Center     Atomic                   Forces (Hartrees/Bohr)
 Number     Number              X              Y              Z
 -------------------------------------------------------------------
      1       16           0.000194238   -0.000037025    0.000011303
      2        6          -0.000171237   -0.000021843   -0.000016311
      3        6          -0.000086703    0.000014182   -0.000006076
      4        1           0.000063701    0.000044686    0.000011084
 -------------------------------------------------------------------
 Cartesian Forces:  Max     0.000194238 RMS     0.000083279
 Z-matrix is all fixed cartesians, so copy forces.
 Force constants in Cartesian coordinates: 
                1             2             3             4             5 
      1  0.442724D+00
      2 -0.232452D-01  0.266609D+00
      3  0.344691D-01  0.323647D-01  0.749808D-02
      4 -0.420246D+00  0.596016D-01 -0.277875D-01  0.991077D+00
      5  0.776421D-01 -0.565822D-01 -0.540043D-03 -0.653548D-01  0.526335D-01
      6 -0.254597D-01 -0.207088D-02 -0.381223D-02  0.750698D-01  0.740317D-03
      7  0.442897D-02 -0.314416D-02 -0.105925D-03 -0.545087D+00  0.121161D-01
      8  0.233550D-03  0.578130D-02  0.656374D-03  0.784999D-02 -0.103950D-01
      9  0.329116D-03  0.372136D-03  0.914559D-03 -0.448609D-01 -0.242349D-04
     10 -0.269067D-01 -0.332122D-01 -0.657563D-02 -0.257439D-01 -0.244034D-01
     11 -0.546304D-01 -0.215808D+00 -0.324810D-01 -0.209681D-02  0.143438D-01
     12 -0.933852D-02 -0.306659D-01 -0.460041D-02 -0.242129D-02 -0.176039D-03
                6             7             8             9            10 
      6  0.104367D-01
      7 -0.443097D-01  0.540744D+00
      8 -0.384190D-03 -0.915799D-02  0.518952D-02
      9 -0.606589D-02  0.444168D-01 -0.264578D-03  0.495866D-02
     10 -0.530036D-02 -0.854233D-04  0.107445D-02  0.115041D-03  0.527361D-01
     11  0.171475D-02  0.186022D-03 -0.575799D-03 -0.833222D-04  0.565412D-01
     12 -0.558534D-03 -0.113017D-05 -0.760554D-05  0.192665D-03  0.117609D-01
               11            12 
     11  0.202040D+00
     12  0.308496D-01  0.496628D-02
 Leave Link  716 at Wed Aug  3 20:19:53 2016, MaxMem=    33554432 cpu:         0.1
 (Enter /home/proyectos/fulerenos/M3C-v2.0/M3C-deps_CCC/g09-AM64L-G09RevC.01/l103.exe)

 GradGradGradGradGradGradGradGradGradGradGradGradGradGradGradGradGradGrad
 Berny optimization.
 Search for a local minimum.
 Step number   1 out of a maximum of    2
 All quantities printed in internal units (Hartrees-Bohrs-Radians)
 Second derivative matrix not updated -- analytic derivatives used.
 The second derivative matrix:
                          X1        Y1        Z1        X2        Y2
           X1           0.44272
           Y1          -0.02325   0.26661
           Z1           0.03447   0.03236   0.00750
           X2          -0.42025   0.05960  -0.02779   0.99108
           Y2           0.07764  -0.05658  -0.00054  -0.06535   0.05263
           Z2          -0.02546  -0.00207  -0.00381   0.07507   0.00074
           X3           0.00443  -0.00314  -0.00011  -0.54509   0.01212
           Y3           0.00023   0.00578   0.00066   0.00785  -0.01040
           Z3           0.00033   0.00037   0.00091  -0.04486  -0.00002
           X4          -0.02691  -0.03321  -0.00658  -0.02574  -0.02440
           Y4          -0.05463  -0.21581  -0.03248  -0.00210   0.01434
           Z4          -0.00934  -0.03067  -0.00460  -0.00242  -0.00018
                          Z2        X3        Y3        Z3        X4
           Z2           0.01044
           X3          -0.04431   0.54074
           Y3          -0.00038  -0.00916   0.00519
           Z3          -0.00607   0.04442  -0.00026   0.00496
           X4          -0.00530  -0.00009   0.00107   0.00012   0.05274
           Y4           0.00171   0.00019  -0.00058  -0.00008   0.05654
           Z4          -0.00056  -0.00000  -0.00001   0.00019   0.01176
                          Y4        Z4
           Y4           0.20204
           Z4           0.03085   0.00497
 ITU=  0
     Eigenvalues ---    0.00566   0.01308   0.08717   0.35725   0.46697
     Eigenvalues ---    1.48350
 Angle between quadratic step and forces=  53.68 degrees.
 Linear search not attempted -- first point.
 B after Tr=    -0.000003   -0.000035   -0.000022
         Rot=    1.000000   -0.000010   -0.000001   -0.000003 Ang=  -0.00 deg.
 Variable       Old X    -DE/DX   Delta X   Delta X   Delta X     New X
                                 (Linear)    (Quad)   (Total)
    X1        1.97377   0.00019   0.00000   0.00037   0.00037   1.97414
    Y1       -0.03393  -0.00004   0.00000   0.00014   0.00012  -0.03381
    Z1        0.20197   0.00001   0.00000   0.00001  -0.00002   0.20195
    X2       -0.95795  -0.00017   0.00000  -0.00033  -0.00034  -0.95829
    Y2        0.47338  -0.00002   0.00000  -0.00091  -0.00095   0.47243
    Z2        0.01905  -0.00002   0.00000   0.00004   0.00003   0.01907
    X3       -3.46626  -0.00009   0.00000  -0.00046  -0.00047  -3.46673
    Y3        0.50456   0.00001   0.00000   0.00051   0.00046   0.50502
    Z3       -0.18896  -0.00001   0.00000  -0.00007  -0.00008  -0.18904
    X4        2.83583   0.00006   0.00000   0.00046   0.00044   2.83627
    Y4        2.38097   0.00004   0.00000   0.00040   0.00038   2.38135
    Z4        0.58647   0.00001   0.00000   0.00005   0.00007   0.58654
         Item               Value     Threshold  Converged?
 Maximum Force            0.000194     0.000450     YES
 RMS     Force            0.000083     0.000300     YES
 Maximum Displacement     0.000954     0.001800     YES
 RMS     Displacement     0.000403     0.001200     YES
 Predicted change in Energy=-1.196338D-07
 Optimization completed.
    -- Stationary point found.
 GradGradGradGradGradGradGradGradGradGradGradGradGradGradGradGradGradGrad

 Leave Link  103 at Wed Aug  3 20:19:53 2016, MaxMem=    33554432 cpu:         0.1
 (Enter /home/proyectos/fulerenos/M3C-v2.0/M3C-deps_CCC/g09-AM64L-G09RevC.01/l9999.exe)
 1\1\GINC-DEPAZ30\Freq\RB3LYP\6-311++G(3df,2p)\C2H1S1(1+)\NAGUIRRE\03-A
 ug-2016\0\\#p b3lyp/6-311++G(3df,2p) freq\\b3lyp opt\\1,1\S,1.044474,-
 0.017955,0.106878\C,-0.506927,0.250502,0.01008\C,-1.834266,0.267004,-0
 .099994\H,1.500658,1.259955,0.310344\\Version=EM64L-G09RevE.01\State=1
 -A\HF=-474.5092415\RMSD=4.730e-09\RMSF=8.328e-05\ZeroPoint=0.0145271\T
 hermal=0.018717\Dipole=1.0609291,0.3038616,0.1289048\DipoleDeriv=0.564
 8801,-0.0709941,0.001652,-0.1960354,0.7425557,0.0228446,-0.0145053,0.0
 333657,0.4399113,-1.242068,-0.0124264,-0.1522763,0.1153704,-0.0162758,
 -0.0621619,-0.1356879,-0.0729776,0.5204267,1.5760634,-0.0488479,0.1392
 945,-0.0203177,0.1012773,0.0303138,0.1429298,0.0279075,-0.1313935,0.10
 11244,0.1322684,0.0113298,0.1009827,0.1724428,0.0090034,0.0072633,0.01
 17043,0.1710555\Polar=59.4863876,0.0494472,27.0437102,2.8735003,0.1862
 212,25.8983421\PG=C01 [X(C2H1S1)]\NImag=0\\0.44272358,-0.02324523,0.26
 660891,0.03446910,0.03236467,0.00749808,-0.42024582,0.05960164,-0.0277
 8755,0.99107718,0.07764211,-0.05658223,-0.00054004,-0.06535481,0.05263
 348,-0.02545969,-0.00207088,-0.00381223,0.07506978,0.00074032,0.010436
 65,0.00442897,-0.00314416,-0.00010593,-0.54508742,0.01211613,-0.044309
 72,0.54074387,0.00023355,0.00578130,0.00065637,0.00784999,-0.01039502,
 -0.00038419,-0.00915799,0.00518952,0.00032912,0.00037214,0.00091456,-0
 .04486093,-0.00002423,-0.00606589,0.04441678,-0.00026458,0.00495866,-0
 .02690673,-0.03321225,-0.00657563,-0.02574394,-0.02440343,-0.00530036,
 -0.00008542,0.00107445,0.00011504,0.05273609,-0.05463043,-0.21580798,-
 0.03248100,-0.00209681,0.01434378,0.00171475,0.00018602,-0.00057580,-0
 .00008332,0.05654122,0.20204000,-0.00933852,-0.03066593,-0.00460041,-0
 .00242129,-0.00017604,-0.00055853,-0.00000113,-0.00000761,0.00019267,0
 .01176095,0.03084958,0.00496628\\-0.00019424,0.00003703,-0.00001130,0.
 00017124,0.00002184,0.00001631,0.00008670,-0.00001418,0.00000608,-0.00
 006370,-0.00004469,-0.00001108\\\@


 I CLAIM NOT TO HAVE CONTROLLED EVENTS,
 BUT CONFESS PLAINLY THAT EVENTS HAVE CONTROLLED ME.

                                         A. LINCOLN
 Job cpu time:       0 days  0 hours  5 minutes 53.0 seconds.
 File lengths (MBytes):  RWF=     12 Int=      0 D2E=      0 Chk=      2 Scr=      1
 Normal termination of Gaussian 09 at Wed Aug  3 20:19:53 2016.
