 Entering Gaussian System, Link 0=/home/proyectos/fulerenos/M3C-v2.0/M3C-deps_CCC/g09-AM64L-G09RevC.01/g09
 Initial command:
 /home/proyectos/fulerenos/M3C-v2.0/M3C-deps_CCC/g09-AM64L-G09RevC.01/l1.exe "/scratch/naguirre/gaussian/Gau-32614.inp" -scrdir="/scratch/naguirre/gaussian/"
 Entering Link 1 = /home/proyectos/fulerenos/M3C-v2.0/M3C-deps_CCC/g09-AM64L-G09RevC.01/l1.exe PID=     32622.
  
 Copyright (c) 1988,1990,1992,1993,1995,1998,2003,2009,2015,
            Gaussian, Inc.  All Rights Reserved.
  
 This is part of the Gaussian(R) 09 program.  It is based on
 the Gaussian(R) 03 system (copyright 2003, Gaussian, Inc.),
 the Gaussian(R) 98 system (copyright 1998, Gaussian, Inc.),
 the Gaussian(R) 94 system (copyright 1995, Gaussian, Inc.),
 the Gaussian 92(TM) system (copyright 1992, Gaussian, Inc.),
 the Gaussian 90(TM) system (copyright 1990, Gaussian, Inc.),
 the Gaussian 88(TM) system (copyright 1988, Gaussian, Inc.),
 the Gaussian 86(TM) system (copyright 1986, Carnegie Mellon
 University), and the Gaussian 82(TM) system (copyright 1983,
 Carnegie Mellon University). Gaussian is a federally registered
 trademark of Gaussian, Inc.
  
 This software contains proprietary and confidential information,
 including trade secrets, belonging to Gaussian, Inc.
  
 This software is provided under written license and may be
 used, copied, transmitted, or stored only in accord with that
 written license.
  
 The following legend is applicable only to US Government
 contracts under FAR:
  
                    RESTRICTED RIGHTS LEGEND
  
 Use, reproduction and disclosure by the US Government is
 subject to restrictions as set forth in subparagraphs (a)
 and (c) of the Commercial Computer Software - Restricted
 Rights clause in FAR 52.227-19.
  
 Gaussian, Inc.
 340 Quinnipiac St., Bldg. 40, Wallingford CT 06492
  
  
 ---------------------------------------------------------------
 Warning -- This program may not be used in any manner that
 competes with the business of Gaussian, Inc. or will provide
 assistance to any competitor of Gaussian, Inc.  The licensee
 of this program is prohibited from giving any competitor of
 Gaussian, Inc. access to this program.  By using this program,
 the user acknowledges that Gaussian, Inc. is engaged in the
 business of creating and licensing software in the field of
 computational chemistry and represents and warrants to the
 licensee that it is not a competitor of Gaussian, Inc. and that
 it will not use this program in any manner prohibited above.
 ---------------------------------------------------------------
  

 Cite this work as:
 Gaussian 09, Revision E.01,
 M. J. Frisch, G. W. Trucks, H. B. Schlegel, G. E. Scuseria, 
 M. A. Robb, J. R. Cheeseman, G. Scalmani, V. Barone, B. Mennucci, 
 G. A. Petersson, H. Nakatsuji, M. Caricato, X. Li, H. P. Hratchian, 
 A. F. Izmaylov, J. Bloino, G. Zheng, J. L. Sonnenberg, M. Hada, 
 M. Ehara, K. Toyota, R. Fukuda, J. Hasegawa, M. Ishida, T. Nakajima, 
 Y. Honda, O. Kitao, H. Nakai, T. Vreven, J. A. Montgomery, Jr., 
 J. E. Peralta, F. Ogliaro, M. Bearpark, J. J. Heyd, E. Brothers, 
 K. N. Kudin, V. N. Staroverov, T. Keith, R. Kobayashi, J. Normand, 
 K. Raghavachari, A. Rendell, J. C. Burant, S. S. Iyengar, J. Tomasi, 
 M. Cossi, N. Rega, J. M. Millam, M. Klene, J. E. Knox, J. B. Cross, 
 V. Bakken, C. Adamo, J. Jaramillo, R. Gomperts, R. E. Stratmann, 
 O. Yazyev, A. J. Austin, R. Cammi, C. Pomelli, J. W. Ochterski, 
 R. L. Martin, K. Morokuma, V. G. Zakrzewski, G. A. Voth, 
 P. Salvador, J. J. Dannenberg, S. Dapprich, A. D. Daniels, 
 O. Farkas, J. B. Foresman, J. V. Ortiz, J. Cioslowski, 
 and D. J. Fox, Gaussian, Inc., Wallingford CT, 2013.
 
 ******************************************
 Gaussian 09:  EM64L-G09RevE.01 30-Nov-2015
                 3-Aug-2016 
 ******************************************
 %NProcShared=4
 Will use up to    4 processors via shared memory.
 ------------------------------
 #p b3lyp/6-311++G(3df,2p) freq
 ------------------------------
 1/10=4,30=1,38=1/1,3;
 2/12=2,17=6,18=5,40=1/2;
 3/5=4,6=6,7=1216,11=2,16=1,25=1,30=1,71=2,74=-5,140=1/1,2,3;
 4//1;
 5/5=2,38=5,98=1/2;
 8/6=4,10=90,11=11/1;
 11/6=1,8=1,9=11,15=111,16=1/1,2,10;
 10/6=1/2;
 6/7=2,8=2,9=2,10=2,18=1,28=1/1;
 7/8=1,10=1,25=1/1,2,3,16;
 1/10=4,30=1/3;
 99//99;
 Leave Link    1 at Wed Aug  3 22:58:29 2016, MaxMem=           0 cpu:         0.3
 (Enter /home/proyectos/fulerenos/M3C-v2.0/M3C-deps_CCC/g09-AM64L-G09RevC.01/l101.exe)
 ---------
 b3lyp opt
 ---------
 Symbolic Z-matrix:
 Charge =  0 Multiplicity = 2
 S                    -1.69779   1.50854   0.91387 
 S                     0.62297  -0.19576  -0.3959 
 C                    -0.63758   0.60874   0.24988 
 C                     0.153    -1.66366  -1.1124 
 H                     1.15525  -1.98583  -1.45394 
 
 NAtoms=      5 NQM=        5 NQMF=       0 NMMI=      0 NMMIF=      0
                NMic=       0 NMicF=      0.
                    Isotopes and Nuclear Properties:
 (Nuclear quadrupole moments (NQMom) in fm**2, nuclear magnetic moments (NMagM)
  in nuclear magnetons)

  Atom         1           2           3           4           5
 IAtWgt=          32          32          12          12           1
 AtmWgt=  31.9720718  31.9720718  12.0000000  12.0000000   1.0078250
 NucSpn=           0           0           0           0           1
 AtZEff=   0.0000000   0.0000000   0.0000000   0.0000000   0.0000000
 NQMom=    0.0000000   0.0000000   0.0000000   0.0000000   0.0000000
 NMagM=    0.0000000   0.0000000   0.0000000   0.0000000   2.7928460
 AtZNuc=  16.0000000  16.0000000   6.0000000   6.0000000   1.0000000
 Leave Link  101 at Wed Aug  3 22:58:29 2016, MaxMem=    33554432 cpu:         0.2
 (Enter /home/proyectos/fulerenos/M3C-v2.0/M3C-deps_CCC/g09-AM64L-G09RevC.01/l103.exe)

 GradGradGradGradGradGradGradGradGradGradGradGradGradGradGradGradGradGrad
 Berny optimization.
 Initialization pass.
 Trust Radius=3.00D-01 FncErr=1.00D-07 GrdErr=1.00D-07
 Number of steps in this run=      2 maximum allowed number of steps=      2.
 GradGradGradGradGradGradGradGradGradGradGradGradGradGradGradGradGradGrad

 Leave Link  103 at Wed Aug  3 22:58:29 2016, MaxMem=    33554432 cpu:         0.1
 (Enter /home/proyectos/fulerenos/M3C-v2.0/M3C-deps_CCC/g09-AM64L-G09RevC.01/l202.exe)
                          Input orientation:                          
 ---------------------------------------------------------------------
 Center     Atomic      Atomic             Coordinates (Angstroms)
 Number     Number       Type             X           Y           Z
 ---------------------------------------------------------------------
      1         16           0       -1.697794    1.508535    0.913868
      2         16           0        0.622971   -0.195758   -0.395903
      3          6           0       -0.637579    0.608737    0.249880
      4          6           0        0.152998   -1.663665   -1.112397
      5          1           0        1.155250   -1.985829   -1.453941
 ---------------------------------------------------------------------
                    Distance matrix (angstroms):
                    1          2          3          4          5
     1  S    0.000000
     2  S    3.163236   0.000000
     3  C    1.540965   1.628875   0.000000
     4  C    4.194524   1.699703   2.764891   0.000000
     5  H    5.094797   2.146420   3.584552   1.106776   0.000000
 Stoichiometry    C2HS2(2)
 Framework group  CS[SG(C2HS2)]
 Deg. of freedom     7
 Full point group                 CS      NOp   2
 Largest Abelian subgroup         CS      NOp   2
 Largest concise Abelian subgroup C1      NOp   1
                         Standard orientation:                         
 ---------------------------------------------------------------------
 Center     Atomic      Atomic             Coordinates (Angstroms)
 Number     Number       Type             X           Y           Z
 ---------------------------------------------------------------------
      1         16           0       -0.390693    1.936726   -0.000000
      2         16           0        0.612499   -1.063219    0.000000
      3          6           0        0.000000    0.446112   -0.000000
      4          6           0       -0.601852   -2.252480    0.000000
      5          1           0        0.062212   -3.137901    0.000000
 ---------------------------------------------------------------------
 Rotational constants (GHZ):     29.2589121      2.1680071      2.0184457
 Leave Link  202 at Wed Aug  3 22:58:29 2016, MaxMem=    33554432 cpu:         0.0
 (Enter /home/proyectos/fulerenos/M3C-v2.0/M3C-deps_CCC/g09-AM64L-G09RevC.01/l301.exe)
 Standard basis: 6-311++G(3df,2p) (5D, 7F)
 Ernie: Thresh=  0.10000D-02 Tol=  0.10000D-05 Strict=F.
 There are   144 symmetry adapted cartesian basis functions of A'  symmetry.
 There are    62 symmetry adapted cartesian basis functions of A"  symmetry.
 There are   124 symmetry adapted basis functions of A'  symmetry.
 There are    58 symmetry adapted basis functions of A"  symmetry.
   182 basis functions,   272 primitive gaussians,   206 cartesian basis functions
    23 alpha electrons       22 beta electrons
       nuclear repulsion energy       165.2315499531 Hartrees.
 IExCor=  402 DFT=T Ex+Corr=B3LYP ExCW=0 ScaHFX=  0.200000
 ScaDFX=  0.800000  0.720000  1.000000  0.810000 ScalE2=  1.000000  1.000000
 IRadAn=      0 IRanWt=     -1 IRanGd=            0 ICorTp=0 IEmpDi=  4
 NAtoms=    5 NActive=    5 NUniq=    5 SFac= 1.00D+00 NAtFMM=   60 NAOKFM=F Big=F
 Integral buffers will be    131072 words long.
 Raffenetti 2 integral format.
 Two-electron integral symmetry is turned on.
 Leave Link  301 at Wed Aug  3 22:58:29 2016, MaxMem=    33554432 cpu:         0.2
 (Enter /home/proyectos/fulerenos/M3C-v2.0/M3C-deps_CCC/g09-AM64L-G09RevC.01/l302.exe)
 NPDir=0 NMtPBC=     1 NCelOv=     1 NCel=       1 NClECP=     1 NCelD=      1
         NCelK=      1 NCelE2=     1 NClLst=     1 CellRange=     0.0.
 One-electron integrals computed using PRISM.
 NBasis=   182 RedAO= T EigKep=  9.21D-05  NBF=   124    58
 NBsUse=   182 1.00D-06 EigRej= -1.00D+00 NBFU=   124    58
 Precomputing XC quadrature grid using
 IXCGrd= 4 IRadAn=           0 IRanWt=          -1 IRanGd=           0 AccXCQ= 0.00D+00.
 Generated NRdTot=       0 NPtTot=           0 NUsed=           0 NTot=          32
 NSgBfM=   206   206   206   206   206 MxSgAt=     5 MxSgA2=     5.
 Leave Link  302 at Wed Aug  3 22:58:30 2016, MaxMem=    33554432 cpu:         1.0
 (Enter /home/proyectos/fulerenos/M3C-v2.0/M3C-deps_CCC/g09-AM64L-G09RevC.01/l303.exe)
 DipDrv:  MaxL=1.
 Leave Link  303 at Wed Aug  3 22:58:30 2016, MaxMem=    33554432 cpu:         0.1
 (Enter /home/proyectos/fulerenos/M3C-v2.0/M3C-deps_CCC/g09-AM64L-G09RevC.01/l401.exe)
 ExpMin= 3.60D-02 ExpMax= 9.34D+04 ExpMxC= 3.17D+03 IAcc=3 IRadAn=         5 AccDes= 0.00D+00
 Harris functional with IExCor=  402 and IRadAn=       5 diagonalized for initial guess.
 HarFok:  IExCor=  402 AccDes= 0.00D+00 IRadAn=         5 IDoV= 1 UseB2=F ITyADJ=14
 ICtDFT=  3500011 ScaDFX=  1.000000  1.000000  1.000000  1.000000
 FoFCou: FMM=F IPFlag=           0 FMFlag=      100000 FMFlg1=           0
         NFxFlg=           0 DoJE=T BraDBF=F KetDBF=T FulRan=T
         wScrn=  0.000000 ICntrl=     500 IOpCl=  0 I1Cent=   200000004 NGrid=           0
         NMat0=    1 NMatS0=      1 NMatT0=    0 NMatD0=    1 NMtDS0=    0 NMtDT0=    0
 Petite list used in FoFCou.
 Harris En= -873.043912775635    
 JPrj=0 DoOrth=F DoCkMO=F.
 Initial guess orbital symmetries:
 Alpha Orbitals:
       Occupied  (A') (A') (A') (A') (A') (A') (A') (A') (A') (A")
                 (A') (A") (A') (A') (A') (A') (A') (A') (A") (A')
                 (A") (A') (A")
       Virtual   (A') (A") (A') (A') (A') (A') (A') (A") (A') (A')
                 (A") (A') (A') (A") (A') (A') (A") (A') (A') (A')
                 (A') (A') (A") (A') (A") (A') (A') (A") (A') (A')
                 (A") (A") (A') (A') (A') (A") (A') (A") (A') (A')
                 (A") (A') (A") (A') (A') (A') (A') (A') (A") (A")
                 (A') (A') (A') (A") (A') (A') (A') (A") (A') (A")
                 (A') (A') (A') (A") (A") (A") (A') (A') (A') (A')
                 (A') (A') (A') (A") (A') (A") (A") (A') (A") (A')
                 (A") (A') (A") (A") (A') (A') (A') (A") (A') (A")
                 (A') (A") (A') (A') (A") (A') (A') (A') (A') (A')
                 (A') (A") (A') (A") (A') (A") (A') (A') (A") (A")
                 (A') (A") (A') (A') (A') (A') (A") (A") (A') (A')
                 (A') (A") (A') (A") (A') (A') (A") (A') (A") (A')
                 (A") (A') (A") (A') (A') (A') (A') (A") (A') (A")
                 (A") (A') (A') (A") (A') (A') (A') (A') (A') (A")
                 (A') (A") (A') (A') (A') (A') (A') (A') (A')
 Beta  Orbitals:
       Occupied  (A') (A') (A') (A') (A') (A') (A') (A') (A') (A")
                 (A') (A") (A') (A') (A') (A') (A') (A') (A") (A')
                 (A") (A')
       Virtual   (A") (A') (A") (A') (A') (A') (A') (A') (A") (A')
                 (A') (A") (A') (A') (A") (A') (A') (A") (A') (A')
                 (A') (A') (A') (A") (A') (A") (A') (A') (A") (A')
                 (A') (A") (A") (A') (A') (A') (A") (A') (A") (A')
                 (A') (A") (A') (A") (A') (A') (A') (A') (A') (A")
                 (A") (A') (A') (A') (A") (A') (A') (A') (A") (A')
                 (A") (A') (A') (A') (A") (A") (A") (A') (A') (A')
                 (A') (A') (A') (A') (A") (A') (A") (A") (A') (A")
                 (A') (A") (A') (A") (A") (A') (A') (A') (A") (A')
                 (A") (A') (A") (A') (A') (A") (A') (A') (A') (A')
                 (A') (A') (A") (A') (A") (A') (A") (A') (A') (A")
                 (A") (A') (A") (A') (A') (A') (A') (A") (A") (A')
                 (A') (A') (A") (A') (A") (A') (A') (A") (A') (A")
                 (A') (A") (A') (A") (A') (A') (A') (A') (A") (A')
                 (A") (A") (A') (A') (A") (A') (A') (A') (A') (A')
                 (A") (A') (A") (A') (A') (A') (A') (A') (A') (A')
 The electronic state of the initial guess is 2-A".
 Initial guess <Sx>= 0.0000 <Sy>= 0.0000 <Sz>= 0.5000 <S**2>= 0.7500 S= 0.5000
 Leave Link  401 at Wed Aug  3 22:58:31 2016, MaxMem=    33554432 cpu:         3.0
 (Enter /home/proyectos/fulerenos/M3C-v2.0/M3C-deps_CCC/g09-AM64L-G09RevC.01/l502.exe)
 UHF open shell SCF:
 Using DIIS extrapolation, IDIIS=  1040.
 Integral symmetry usage will be decided dynamically.
 IVT=      148638 IEndB=      148638 NGot=    33554432 MDV=    33465077
 LenX=    33465077 LenY=    33422200
 Requested convergence on RMS density matrix=1.00D-08 within 128 cycles.
 Requested convergence on MAX density matrix=1.00D-06.
 Requested convergence on             energy=1.00D-06.
 No special actions if energy rises.
 Fock matrices will be formed incrementally for  20 cycles.

 Cycle   1  Pass 1  IDiag  1:
 FoFJK:  IHMeth= 1 ICntrl=       0 DoSepK=F KAlg= 0 I1Cent=   0 FoldK=F
 IRaf= 940000000 NMat=   1 IRICut=       1 DoRegI=T DoRafI=F ISym2E= 1.
 FoFCou: FMM=F IPFlag=           0 FMFlag=      100000 FMFlg1=           0
         NFxFlg=           0 DoJE=F BraDBF=F KetDBF=F FulRan=T
         wScrn=  0.000000 ICntrl=       0 IOpCl=  1 I1Cent=           0 NGrid=           0
         NMat0=    1 NMatS0=      1 NMatT0=    0 NMatD0=    1 NMtDS0=    0 NMtDT0=    0
 Petite list used in FoFCou.
 E= -872.828247274971    
 DIIS: error= 5.76D-02 at cycle   1 NSaved=   1.
 NSaved= 1 IEnMin= 1 EnMin= -872.828247274971     IErMin= 1 ErrMin= 5.76D-02
 ErrMax= 5.76D-02  0.00D+00 EMaxC= 1.00D-01 BMatC= 1.03D+00 BMatP= 1.03D+00
 IDIUse=3 WtCom= 4.24D-01 WtEn= 5.76D-01
 Coeff-Com:  0.100D+01
 Coeff-En:   0.100D+01
 Coeff:      0.100D+01
 Gap=    -0.105 Goal=   None    Shift=    0.000
 Gap=    -0.109 Goal=   None    Shift=    0.000
 GapD=   -0.109 DampG=0.250 DampE=0.500 DampFc=0.2500 IDamp=-1.
 Damping current iteration by 2.50D-01
 RMSDP=7.77D-03 MaxDP=2.32D-01              OVMax= 8.42D-01

 Cycle   2  Pass 1  IDiag  1:
 RMSU=  1.93D-03    CP:  9.87D-01
 E= -872.905304951963     Delta-E=       -0.077057676992 Rises=F Damp=T
 DIIS: error= 1.84D-02 at cycle   2 NSaved=   2.
 NSaved= 2 IEnMin= 2 EnMin= -872.905304951963     IErMin= 2 ErrMin= 1.84D-02
 ErrMax= 1.84D-02  0.00D+00 EMaxC= 1.00D-01 BMatC= 1.66D-01 BMatP= 1.03D+00
 IDIUse=3 WtCom= 8.16D-01 WtEn= 1.84D-01
 Coeff-Com: -0.139D+00 0.114D+01
 Coeff-En:   0.313D+00 0.687D+00
 Coeff:     -0.556D-01 0.106D+01
 Gap=     0.142 Goal=   None    Shift=    0.000
 Gap=     0.083 Goal=   None    Shift=    0.000
 RMSDP=2.64D-03 MaxDP=8.11D-02 DE=-7.71D-02 OVMax= 9.28D-01

 Cycle   3  Pass 1  IDiag  1:
 RMSU=  2.32D-03    CP:  9.82D-01  3.43D-01
 E= -872.889465995501     Delta-E=        0.015838956462 Rises=F Damp=F
 DIIS: error= 3.62D-02 at cycle   3 NSaved=   3.
 NSaved= 3 IEnMin= 2 EnMin= -872.905304951963     IErMin= 2 ErrMin= 1.84D-02
 ErrMax= 3.62D-02  0.00D+00 EMaxC= 1.00D-01 BMatC= 6.42D-01 BMatP= 1.66D-01
 IDIUse=2 WtCom= 0.00D+00 WtEn= 1.00D+00
 EnCoef did     1 forward-backward iterations
 Coeff-En:   0.439D-01 0.504D+00 0.452D+00
 Coeff:      0.439D-01 0.504D+00 0.452D+00
 Gap=     0.011 Goal=   None    Shift=    0.000
 Gap=     0.015 Goal=   None    Shift=    0.000
 RMSDP=5.41D-03 MaxDP=1.27D-01 DE= 1.58D-02 OVMax= 7.66D-01

 Cycle   4  Pass 1  IDiag  1:
 RMSU=  3.67D-03    CP:  9.77D-01  1.98D+00 -4.64D-02
 E= -872.376045265685     Delta-E=        0.513420729816 Rises=F Damp=F
 DIIS: error= 6.88D-02 at cycle   4 NSaved=   4.
 NSaved= 4 IEnMin= 2 EnMin= -872.905304951963     IErMin= 2 ErrMin= 1.84D-02
 ErrMax= 6.88D-02  0.00D+00 EMaxC= 1.00D-01 BMatC= 1.97D+00 BMatP= 1.66D-01
 IDIUse=2 WtCom= 0.00D+00 WtEn= 1.00D+00
 EnCoef did     3 forward-backward iterations
 Coeff-En:   0.199D+00 0.000D+00 0.520D+00 0.282D+00
 Coeff:      0.199D+00 0.000D+00 0.520D+00 0.282D+00
 Gap=     0.016 Goal=   None    Shift=    0.000
 Gap=     0.019 Goal=   None    Shift=    0.000
 RMSDP=3.81D-03 MaxDP=9.76D-02 DE= 5.13D-01 OVMax= 6.27D-01

 Cycle   5  Pass 1  IDiag  1:
 RMSU=  1.40D-03    CP:  9.86D-01  5.78D-01  4.62D-01  4.66D-01
 E= -873.088755515331     Delta-E=       -0.712710249646 Rises=F Damp=F
 DIIS: error= 1.21D-02 at cycle   5 NSaved=   5.
 NSaved= 5 IEnMin= 5 EnMin= -873.088755515331     IErMin= 5 ErrMin= 1.21D-02
 ErrMax= 1.21D-02  0.00D+00 EMaxC= 1.00D-01 BMatC= 5.51D-02 BMatP= 1.66D-01
 IDIUse=3 WtCom= 8.79D-01 WtEn= 1.21D-01
 Coeff-Com: -0.673D-01 0.188D+00 0.202D+00-0.409D-01 0.719D+00
 Coeff-En:   0.000D+00 0.000D+00 0.834D-01 0.000D+00 0.917D+00
 Coeff:     -0.592D-01 0.165D+00 0.188D+00-0.359D-01 0.743D+00
 Gap=     0.064 Goal=   None    Shift=    0.000
 Gap=     0.096 Goal=   None    Shift=    0.000
 RMSDP=6.70D-04 MaxDP=1.84D-02 DE=-7.13D-01 OVMax= 7.16D-02

 Cycle   6  Pass 1  IDiag  1:
 RMSU=  4.26D-04    CP:  9.87D-01  5.40D-01  5.75D-01  3.49D-01  9.33D-01
 E= -873.101633216072     Delta-E=       -0.012877700741 Rises=F Damp=F
 DIIS: error= 4.75D-03 at cycle   6 NSaved=   6.
 NSaved= 6 IEnMin= 6 EnMin= -873.101633216072     IErMin= 6 ErrMin= 4.75D-03
 ErrMax= 4.75D-03  0.00D+00 EMaxC= 1.00D-01 BMatC= 9.56D-03 BMatP= 5.51D-02
 IDIUse=3 WtCom= 9.53D-01 WtEn= 4.75D-02
 Coeff-Com: -0.209D-01 0.434D-01 0.795D-01-0.266D-01 0.470D+00 0.454D+00
 Coeff-En:   0.000D+00 0.000D+00 0.000D+00 0.000D+00 0.140D+00 0.860D+00
 Coeff:     -0.199D-01 0.414D-01 0.757D-01-0.254D-01 0.455D+00 0.474D+00
 Gap=     0.067 Goal=   None    Shift=    0.000
 Gap=     0.100 Goal=   None    Shift=    0.000
 RMSDP=3.04D-04 MaxDP=1.14D-02 DE=-1.29D-02 OVMax= 2.96D-02

 Cycle   7  Pass 1  IDiag  1:
 RMSU=  2.39D-04    CP:  9.86D-01  5.29D-01  5.72D-01  3.65D-01  9.95D-01
                    CP:  6.36D-01
 E= -873.103966421819     Delta-E=       -0.002333205747 Rises=F Damp=F
 DIIS: error= 2.26D-03 at cycle   7 NSaved=   7.
 NSaved= 7 IEnMin= 7 EnMin= -873.103966421819     IErMin= 7 ErrMin= 2.26D-03
 ErrMax= 2.26D-03  0.00D+00 EMaxC= 1.00D-01 BMatC= 1.84D-03 BMatP= 9.56D-03
 IDIUse=3 WtCom= 9.77D-01 WtEn= 2.26D-02
 Coeff-Com:  0.687D-02-0.782D-02 0.403D-02-0.848D-02 0.739D-01 0.299D+00
 Coeff-Com:  0.632D+00
 Coeff-En:   0.000D+00 0.000D+00 0.000D+00 0.000D+00 0.000D+00 0.170D+00
 Coeff-En:   0.830D+00
 Coeff:      0.671D-02-0.764D-02 0.394D-02-0.829D-02 0.723D-01 0.296D+00
 Coeff:      0.637D+00
 Gap=     0.070 Goal=   None    Shift=    0.000
 Gap=     0.105 Goal=   None    Shift=    0.000
 RMSDP=1.48D-04 MaxDP=6.94D-03 DE=-2.33D-03 OVMax= 1.32D-02

 Cycle   8  Pass 1  IDiag  1:
 RMSU=  1.08D-04    CP:  9.85D-01  5.25D-01  5.70D-01  3.50D-01  9.99D-01
                    CP:  8.17D-01  9.00D-01
 E= -873.104565316899     Delta-E=       -0.000598895080 Rises=F Damp=F
 DIIS: error= 4.33D-04 at cycle   8 NSaved=   8.
 NSaved= 8 IEnMin= 8 EnMin= -873.104565316899     IErMin= 8 ErrMin= 4.33D-04
 ErrMax= 4.33D-04  0.00D+00 EMaxC= 1.00D-01 BMatC= 1.13D-04 BMatP= 1.84D-03
 IDIUse=3 WtCom= 9.96D-01 WtEn= 4.33D-03
 Coeff-Com:  0.767D-02-0.129D-01-0.551D-02 0.210D-03-0.413D-01-0.322D-02
 Coeff-Com:  0.120D+00 0.935D+00
 Coeff-En:   0.000D+00 0.000D+00 0.000D+00 0.000D+00 0.000D+00 0.000D+00
 Coeff-En:   0.000D+00 0.100D+01
 Coeff:      0.763D-02-0.129D-01-0.548D-02 0.209D-03-0.411D-01-0.321D-02
 Coeff:      0.120D+00 0.935D+00
 Gap=     0.071 Goal=   None    Shift=    0.000
 Gap=     0.106 Goal=   None    Shift=    0.000
 RMSDP=7.36D-05 MaxDP=2.87D-03 DE=-5.99D-04 OVMax= 9.28D-03

 Cycle   9  Pass 1  IDiag  1:
 RMSU=  3.62D-05    CP:  9.85D-01  5.21D-01  5.70D-01  3.43D-01  1.00D+00
                    CP:  8.58D-01  1.07D+00  1.33D+00
 E= -873.104635279712     Delta-E=       -0.000069962813 Rises=F Damp=F
 DIIS: error= 3.46D-04 at cycle   9 NSaved=   9.
 NSaved= 9 IEnMin= 9 EnMin= -873.104635279712     IErMin= 9 ErrMin= 3.46D-04
 ErrMax= 3.46D-04  0.00D+00 EMaxC= 1.00D-01 BMatC= 3.09D-05 BMatP= 1.13D-04
 IDIUse=3 WtCom= 9.97D-01 WtEn= 3.46D-03
 Coeff-Com: -0.168D-02 0.336D-02 0.168D-02 0.264D-03-0.218D-01-0.499D-01
 Coeff-Com: -0.103D+00 0.286D+00 0.885D+00
 Coeff-En:   0.000D+00 0.000D+00 0.000D+00 0.000D+00 0.000D+00 0.000D+00
 Coeff-En:   0.000D+00 0.000D+00 0.100D+01
 Coeff:     -0.167D-02 0.335D-02 0.167D-02 0.263D-03-0.218D-01-0.497D-01
 Coeff:     -0.103D+00 0.285D+00 0.885D+00
 Gap=     0.071 Goal=   None    Shift=    0.000
 Gap=     0.107 Goal=   None    Shift=    0.000
 RMSDP=3.77D-05 MaxDP=1.20D-03 DE=-7.00D-05 OVMax= 5.75D-03

 Cycle  10  Pass 1  IDiag  1:
 RMSU=  1.53D-05    CP:  9.85D-01  5.20D-01  5.71D-01  3.38D-01  1.00D+00
                    CP:  8.87D-01  1.12D+00  1.55D+00  1.08D+00
 E= -873.104651981028     Delta-E=       -0.000016701316 Rises=F Damp=F
 DIIS: error= 1.26D-04 at cycle  10 NSaved=  10.
 NSaved=10 IEnMin=10 EnMin= -873.104651981028     IErMin=10 ErrMin= 1.26D-04
 ErrMax= 1.26D-04  0.00D+00 EMaxC= 1.00D-01 BMatC= 2.26D-06 BMatP= 3.09D-05
 IDIUse=3 WtCom= 9.99D-01 WtEn= 1.26D-03
 Coeff-Com: -0.127D-02 0.166D-02-0.693D-04 0.381D-03-0.263D-02-0.103D-01
 Coeff-Com: -0.295D-01-0.217D-01 0.139D+00 0.925D+00
 Coeff-En:   0.000D+00 0.000D+00 0.000D+00 0.000D+00 0.000D+00 0.000D+00
 Coeff-En:   0.000D+00 0.000D+00 0.000D+00 0.100D+01
 Coeff:     -0.127D-02 0.166D-02-0.692D-04 0.381D-03-0.263D-02-0.103D-01
 Coeff:     -0.295D-01-0.217D-01 0.138D+00 0.925D+00
 Gap=     0.071 Goal=   None    Shift=    0.000
 Gap=     0.107 Goal=   None    Shift=    0.000
 RMSDP=1.40D-05 MaxDP=4.42D-04 DE=-1.67D-05 OVMax= 2.12D-03

 Cycle  11  Pass 1  IDiag  1:
 RMSU=  6.76D-06    CP:  9.85D-01  5.22D-01  5.70D-01  3.38D-01  1.00D+00
                    CP:  8.98D-01  1.14D+00  1.61D+00  1.19D+00  1.33D+00
 E= -873.104654503558     Delta-E=       -0.000002522530 Rises=F Damp=F
 DIIS: error= 2.76D-05 at cycle  11 NSaved=  11.
 NSaved=11 IEnMin=11 EnMin= -873.104654503558     IErMin=11 ErrMin= 2.76D-05
 ErrMax= 2.76D-05  0.00D+00 EMaxC= 1.00D-01 BMatC= 4.17D-07 BMatP= 2.26D-06
 IDIUse=1 WtCom= 1.00D+00 WtEn= 0.00D+00
 Coeff-Com:  0.112D-04-0.478D-04-0.420D-03 0.134D-03 0.524D-03 0.808D-03
 Coeff-Com:  0.745D-02-0.334D-01-0.883D-01 0.167D+00 0.947D+00
 Coeff:      0.112D-04-0.478D-04-0.420D-03 0.134D-03 0.524D-03 0.808D-03
 Coeff:      0.745D-02-0.334D-01-0.883D-01 0.167D+00 0.947D+00
 Gap=     0.071 Goal=   None    Shift=    0.000
 Gap=     0.107 Goal=   None    Shift=    0.000
 RMSDP=7.35D-06 MaxDP=2.25D-04 DE=-2.52D-06 OVMax= 1.06D-03

 Cycle  12  Pass 1  IDiag  1:
 RMSU=  3.04D-06    CP:  9.85D-01  5.22D-01  5.70D-01  3.38D-01  1.01D+00
                    CP:  9.02D-01  1.16D+00  1.63D+00  1.23D+00  1.58D+00
                    CP:  1.32D+00
 E= -873.104655141565     Delta-E=       -0.000000638007 Rises=F Damp=F
 DIIS: error= 1.63D-05 at cycle  12 NSaved=  12.
 NSaved=12 IEnMin=12 EnMin= -873.104655141565     IErMin=12 ErrMin= 1.63D-05
 ErrMax= 1.63D-05  0.00D+00 EMaxC= 1.00D-01 BMatC= 1.45D-07 BMatP= 4.17D-07
 IDIUse=1 WtCom= 1.00D+00 WtEn= 0.00D+00
 Coeff-Com:  0.375D-03-0.443D-03 0.219D-03-0.741D-04 0.676D-03 0.102D-02
 Coeff-Com:  0.347D-02 0.126D-02-0.299D-01-0.187D+00 0.126D+00 0.108D+01
 Coeff:      0.375D-03-0.443D-03 0.219D-03-0.741D-04 0.676D-03 0.102D-02
 Coeff:      0.347D-02 0.126D-02-0.299D-01-0.187D+00 0.126D+00 0.108D+01
 Gap=     0.071 Goal=   None    Shift=    0.000
 Gap=     0.107 Goal=   None    Shift=    0.000
 RMSDP=4.92D-06 MaxDP=1.43D-04 DE=-6.38D-07 OVMax= 6.99D-04

 Cycle  13  Pass 1  IDiag  1:
 RMSU=  1.19D-06    CP:  9.85D-01  5.22D-01  5.70D-01  3.37D-01  1.01D+00
                    CP:  9.03D-01  1.16D+00  1.65D+00  1.27D+00  1.72D+00
                    CP:  1.66D+00  1.70D+00
 E= -873.104655337853     Delta-E=       -0.000000196289 Rises=F Damp=F
 DIIS: error= 1.46D-05 at cycle  13 NSaved=  13.
 NSaved=13 IEnMin=13 EnMin= -873.104655337853     IErMin=13 ErrMin= 1.46D-05
 ErrMax= 1.46D-05  0.00D+00 EMaxC= 1.00D-01 BMatC= 8.69D-08 BMatP= 1.45D-07
 IDIUse=1 WtCom= 1.00D+00 WtEn= 0.00D+00
 Coeff-Com:  0.103D-03-0.108D-03 0.267D-03-0.505D-04 0.262D-04-0.113D-03
 Coeff-Com: -0.296D-02 0.441D-02 0.125D-01 0.143D-01-0.164D+00-0.143D+00
 Coeff-Com:  0.128D+01
 Coeff:      0.103D-03-0.108D-03 0.267D-03-0.505D-04 0.262D-04-0.113D-03
 Coeff:     -0.296D-02 0.441D-02 0.125D-01 0.143D-01-0.164D+00-0.143D+00
 Coeff:      0.128D+01
 Gap=     0.071 Goal=   None    Shift=    0.000
 Gap=     0.107 Goal=   None    Shift=    0.000
 RMSDP=2.55D-06 MaxDP=9.66D-05 DE=-1.96D-07 OVMax= 4.00D-04

 Cycle  14  Pass 1  IDiag  1:
 RMSU=  5.21D-07    CP:  9.85D-01  5.22D-01  5.70D-01  3.37D-01  1.00D+00
                    CP:  9.04D-01  1.16D+00  1.66D+00  1.28D+00  1.78D+00
                    CP:  1.80D+00  2.15D+00  1.51D+00
 E= -873.104655397487     Delta-E=       -0.000000059634 Rises=F Damp=F
 DIIS: error= 4.79D-06 at cycle  14 NSaved=  14.
 NSaved=14 IEnMin=14 EnMin= -873.104655397487     IErMin=14 ErrMin= 4.79D-06
 ErrMax= 4.79D-06  0.00D+00 EMaxC= 1.00D-01 BMatC= 9.31D-09 BMatP= 8.69D-08
 IDIUse=1 WtCom= 1.00D+00 WtEn= 0.00D+00
 Coeff-Com:  0.110D-04-0.277D-04 0.267D-04-0.236D-05-0.156D-03 0.117D-03
 Coeff-Com: -0.461D-03 0.119D-03 0.191D-02 0.425D-01-0.459D-01-0.252D+00
 Coeff-Com:  0.309D+00 0.945D+00
 Coeff:      0.110D-04-0.277D-04 0.267D-04-0.236D-05-0.156D-03 0.117D-03
 Coeff:     -0.461D-03 0.119D-03 0.191D-02 0.425D-01-0.459D-01-0.252D+00
 Coeff:      0.309D+00 0.945D+00
 Gap=     0.071 Goal=   None    Shift=    0.000
 Gap=     0.107 Goal=   None    Shift=    0.000
 RMSDP=8.40D-07 MaxDP=2.27D-05 DE=-5.96D-08 OVMax= 1.44D-04

 Cycle  15  Pass 1  IDiag  1:
 RMSU=  2.12D-07    CP:  9.85D-01  5.22D-01  5.70D-01  3.37D-01  1.00D+00
                    CP:  9.04D-01  1.16D+00  1.66D+00  1.29D+00  1.81D+00
                    CP:  1.84D+00  2.29D+00  1.74D+00  1.12D+00
 E= -873.104655403495     Delta-E=       -0.000000006007 Rises=F Damp=F
 DIIS: error= 8.76D-07 at cycle  15 NSaved=  15.
 NSaved=15 IEnMin=15 EnMin= -873.104655403495     IErMin=15 ErrMin= 8.76D-07
 ErrMax= 8.76D-07  0.00D+00 EMaxC= 1.00D-01 BMatC= 3.30D-10 BMatP= 9.31D-09
 IDIUse=1 WtCom= 1.00D+00 WtEn= 0.00D+00
 Coeff-Com: -0.912D-05 0.873D-05-0.931D-05 0.143D-05 0.793D-05 0.146D-03
 Coeff-Com:  0.174D-03-0.480D-03-0.489D-03 0.297D-02 0.146D-02-0.234D-01
 Coeff-Com: -0.359D-01 0.163D+00 0.892D+00
 Coeff:     -0.912D-05 0.873D-05-0.931D-05 0.143D-05 0.793D-05 0.146D-03
 Coeff:      0.174D-03-0.480D-03-0.489D-03 0.297D-02 0.146D-02-0.234D-01
 Coeff:     -0.359D-01 0.163D+00 0.892D+00
 Gap=     0.071 Goal=   None    Shift=    0.000
 Gap=     0.107 Goal=   None    Shift=    0.000
 RMSDP=1.66D-07 MaxDP=4.79D-06 DE=-6.01D-09 OVMax= 2.56D-05

 Cycle  16  Pass 1  IDiag  1:
 RMSU=  7.21D-08    CP:  9.85D-01  5.22D-01  5.70D-01  3.37D-01  1.00D+00
                    CP:  9.04D-01  1.16D+00  1.66D+00  1.29D+00  1.81D+00
                    CP:  1.85D+00  2.30D+00  1.77D+00  1.25D+00  1.23D+00
 E= -873.104655403702     Delta-E=       -0.000000000208 Rises=F Damp=F
 DIIS: error= 9.62D-07 at cycle  16 NSaved=  16.
 NSaved=16 IEnMin=16 EnMin= -873.104655403702     IErMin=15 ErrMin= 8.76D-07
 ErrMax= 9.62D-07  0.00D+00 EMaxC= 1.00D-01 BMatC= 2.77D-10 BMatP= 3.30D-10
 IDIUse=1 WtCom= 1.00D+00 WtEn= 0.00D+00
 Coeff-Com: -0.640D-05 0.782D-05-0.119D-04 0.789D-06 0.337D-04 0.743D-04
 Coeff-Com:  0.164D-03-0.106D-03-0.375D-03-0.610D-02 0.420D-02 0.291D-01
 Coeff-Com: -0.323D-01-0.914D-01 0.186D+00 0.911D+00
 Coeff:     -0.640D-05 0.782D-05-0.119D-04 0.789D-06 0.337D-04 0.743D-04
 Coeff:      0.164D-03-0.106D-03-0.375D-03-0.610D-02 0.420D-02 0.291D-01
 Coeff:     -0.323D-01-0.914D-01 0.186D+00 0.911D+00
 Gap=     0.071 Goal=   None    Shift=    0.000
 Gap=     0.107 Goal=   None    Shift=    0.000
 RMSDP=7.76D-08 MaxDP=2.12D-06 DE=-2.08D-10 OVMax= 1.06D-05

 Cycle  17  Pass 1  IDiag  1:
 RMSU=  2.80D-08    CP:  9.85D-01  5.22D-01  5.70D-01  3.37D-01  1.00D+00
                    CP:  9.04D-01  1.16D+00  1.66D+00  1.29D+00  1.81D+00
                    CP:  1.85D+00  2.30D+00  1.76D+00  1.27D+00  1.48D+00
                    CP:  1.37D+00
 E= -873.104655403817     Delta-E=       -0.000000000115 Rises=F Damp=F
 DIIS: error= 4.61D-07 at cycle  17 NSaved=  17.
 NSaved=17 IEnMin=17 EnMin= -873.104655403817     IErMin=17 ErrMin= 4.61D-07
 ErrMax= 4.61D-07  0.00D+00 EMaxC= 1.00D-01 BMatC= 7.83D-11 BMatP= 2.77D-10
 IDIUse=1 WtCom= 1.00D+00 WtEn= 0.00D+00
 Coeff-Com:  0.539D-06-0.126D-05-0.169D-05 0.226D-06-0.519D-06-0.434D-04
 Coeff-Com: -0.256D-04 0.159D-03 0.337D-03-0.930D-03-0.301D-02 0.443D-02
 Coeff-Com:  0.193D-01-0.411D-01-0.200D+00-0.138D+00 0.136D+01
 Coeff:      0.539D-06-0.126D-05-0.169D-05 0.226D-06-0.519D-06-0.434D-04
 Coeff:     -0.256D-04 0.159D-03 0.337D-03-0.930D-03-0.301D-02 0.443D-02
 Coeff:      0.193D-01-0.411D-01-0.200D+00-0.138D+00 0.136D+01
 Gap=     0.071 Goal=   None    Shift=    0.000
 Gap=     0.107 Goal=   None    Shift=    0.000
 RMSDP=6.58D-08 MaxDP=1.55D-06 DE=-1.15D-10 OVMax= 1.09D-05

 Cycle  18  Pass 1  IDiag  1:
 RMSU=  1.17D-08    CP:  9.85D-01  5.22D-01  5.70D-01  3.37D-01  1.00D+00
                    CP:  9.04D-01  1.16D+00  1.66D+00  1.29D+00  1.81D+00
                    CP:  1.85D+00  2.30D+00  1.76D+00  1.29D+00  1.65D+00
                    CP:  1.85D+00  1.61D+00
 E= -873.104655403858     Delta-E=       -0.000000000040 Rises=F Damp=F
 DIIS: error= 1.09D-07 at cycle  18 NSaved=  18.
 NSaved=18 IEnMin=18 EnMin= -873.104655403858     IErMin=18 ErrMin= 1.09D-07
 ErrMax= 1.09D-07  0.00D+00 EMaxC= 1.00D-01 BMatC= 2.32D-12 BMatP= 7.83D-11
 IDIUse=1 WtCom= 1.00D+00 WtEn= 0.00D+00
 Coeff-Com:  0.376D-06-0.346D-06 0.635D-06-0.260D-07-0.375D-05-0.264D-04
 Coeff-Com: -0.193D-04 0.409D-04 0.188D-03 0.328D-03-0.131D-02-0.761D-03
 Coeff-Com:  0.712D-02-0.694D-02-0.720D-01-0.133D+00 0.442D+00 0.765D+00
 Coeff:      0.376D-06-0.346D-06 0.635D-06-0.260D-07-0.375D-05-0.264D-04
 Coeff:     -0.193D-04 0.409D-04 0.188D-03 0.328D-03-0.131D-02-0.761D-03
 Coeff:      0.712D-02-0.694D-02-0.720D-01-0.133D+00 0.442D+00 0.765D+00
 Gap=     0.071 Goal=   None    Shift=    0.000
 Gap=     0.107 Goal=   None    Shift=    0.000
 RMSDP=1.22D-08 MaxDP=2.98D-07 DE=-4.05D-11 OVMax= 1.69D-06

 Cycle  19  Pass 1  IDiag  1:
 RMSU=  3.50D-09    CP:  9.85D-01  5.22D-01  5.70D-01  3.37D-01  1.00D+00
                    CP:  9.04D-01  1.16D+00  1.66D+00  1.29D+00  1.81D+00
                    CP:  1.85D+00  2.30D+00  1.77D+00  1.29D+00  1.68D+00
                    CP:  1.92D+00  1.80D+00  1.03D+00
 E= -873.104655403862     Delta-E=       -0.000000000005 Rises=F Damp=F
 DIIS: error= 2.85D-08 at cycle  19 NSaved=  19.
 NSaved=19 IEnMin=19 EnMin= -873.104655403862     IErMin=19 ErrMin= 2.85D-08
 ErrMax= 2.85D-08  0.00D+00 EMaxC= 1.00D-01 BMatC= 2.14D-13 BMatP= 2.32D-12
 IDIUse=1 WtCom= 1.00D+00 WtEn= 0.00D+00
 Coeff-Com:  0.976D-07-0.162D-06 0.317D-06 0.104D-07 0.189D-06 0.299D-05
 Coeff-Com:  0.107D-05-0.260D-04-0.313D-04 0.189D-03 0.291D-03-0.302D-03
 Coeff-Com: -0.181D-02 0.269D-02 0.124D-01 0.964D-03-0.101D+00-0.349D-02
 Coeff-Com:  0.109D+01
 Coeff:      0.976D-07-0.162D-06 0.317D-06 0.104D-07 0.189D-06 0.299D-05
 Coeff:      0.107D-05-0.260D-04-0.313D-04 0.189D-03 0.291D-03-0.302D-03
 Coeff:     -0.181D-02 0.269D-02 0.124D-01 0.964D-03-0.101D+00-0.349D-02
 Coeff:      0.109D+01
 Gap=     0.071 Goal=   None    Shift=    0.000
 Gap=     0.107 Goal=   None    Shift=    0.000
 RMSDP=5.53D-09 MaxDP=1.50D-07 DE=-4.77D-12 OVMax= 9.84D-07

 SCF Done:  E(UB3LYP) =  -873.104655404     A.U. after   19 cycles
            NFock= 19  Conv=0.55D-08     -V/T= 2.0017
 <Sx>= 0.0000 <Sy>= 0.0000 <Sz>= 0.5000 <S**2>= 0.7707 S= 0.5103
 <L.S>= 0.000000000000E+00
 KE= 8.716469459478D+02 PE=-2.401646775043D+03 EE= 4.916636237380D+02
 Annihilation of the first spin contaminant:
 S**2 before annihilation     0.7707,   after     0.7501
 Leave Link  502 at Wed Aug  3 22:59:51 2016, MaxMem=    33554432 cpu:       309.8
 (Enter /home/proyectos/fulerenos/M3C-v2.0/M3C-deps_CCC/g09-AM64L-G09RevC.01/l801.exe)
 DoSCS=F DFT=T ScalE2(SS,OS)=  1.000000  1.000000
 Range of M.O.s used for correlation:     1   182
 NBasis=   182 NAE=    23 NBE=    22 NFC=     0 NFV=     0
 NROrb=    182 NOA=    23 NOB=    22 NVA=   159 NVB=   160

 **** Warning!!: The largest alpha MO coefficient is  0.39320366D+02


 **** Warning!!: The smallest alpha delta epsilon is  0.70915039D-01


 **** Warning!!: The largest beta MO coefficient is  0.39063063D+02

 Leave Link  801 at Wed Aug  3 22:59:51 2016, MaxMem=    33554432 cpu:         0.1
 (Enter /home/proyectos/fulerenos/M3C-v2.0/M3C-deps_CCC/g09-AM64L-G09RevC.01/l1101.exe)
 Using compressed storage, NAtomX=     5.
 Will process      6 centers per pass.
 Leave Link 1101 at Wed Aug  3 22:59:52 2016, MaxMem=    33554432 cpu:         1.0
 (Enter /home/proyectos/fulerenos/M3C-v2.0/M3C-deps_CCC/g09-AM64L-G09RevC.01/l1102.exe)
 Symmetrizing basis deriv contribution to polar:
 IMax=3 JMax=2 DiffMx= 0.00D+00
 Leave Link 1102 at Wed Aug  3 22:59:52 2016, MaxMem=    33554432 cpu:         0.1
 (Enter /home/proyectos/fulerenos/M3C-v2.0/M3C-deps_CCC/g09-AM64L-G09RevC.01/l1110.exe)
 Forming Gx(P) for the SCF density, NAtomX=     5.
 Integral derivatives from FoFJK, PRISM(SPDF).
 Do as many integral derivatives as possible in FoFJK.
 G2DrvN: MDV=      33554288.
 G2DrvN: will do     6 centers at a time, making    1 passes.
 Calling FoFCou, ICntrl=  3107 FMM=F I1Cent=   0 AccDes= 0.00D+00.
 FoFJK:  IHMeth= 1 ICntrl=    3107 DoSepK=F KAlg= 0 I1Cent=   0 FoldK=F
 IRaf=         0 NMat=   1 IRICut=       1 DoRegI=T DoRafI=F ISym2E= 1.
 FoFCou: FMM=F IPFlag=           0 FMFlag=      100000 FMFlg1=           0
         NFxFlg=           0 DoJE=F BraDBF=F KetDBF=F FulRan=T
         wScrn=  0.000000 ICntrl=    3107 IOpCl=  1 I1Cent=           0 NGrid=           0
         NMat0=    1 NMatS0=      1 NMatT0=    0 NMatD0=    1 NMtDS0=    0 NMtDT0=    0
 Petite list used in FoFCou.
 End of G2Drv F.D. properties file   721 does not exist.
 End of G2Drv F.D. properties file   722 does not exist.
 End of G2Drv F.D. properties file   788 does not exist.
 Leave Link 1110 at Wed Aug  3 23:00:22 2016, MaxMem=    33554432 cpu:       119.8
 (Enter /home/proyectos/fulerenos/M3C-v2.0/M3C-deps_CCC/g09-AM64L-G09RevC.01/l1002.exe)
 Minotr:  UHF open shell wavefunction.
          IDoAtm=11111
          Direct CPHF calculation.
          Differentiating once with respect to electric field.
                with respect to dipole field.
          Differentiating once with respect to nuclear coordinates.
          Using symmetry in CPHF.
          Requested convergence is 1.0D-08 RMS, and 1.0D-07 maximum.
          Secondary convergence is 1.0D-12 RMS, and 1.0D-12 maximum.
          NewPWx=T KeepS1=F KeepF1=F KeepIn=T MapXYZ=F SortEE=F KeepMc=T.
          MDV=      33554014 using IRadAn=       2.
 Generate precomputed XC quadrature information.
          Solving linear equations simultaneously, MaxMat=       0.
 FoFJK:  IHMeth= 1 ICntrl=       0 DoSepK=F KAlg= 0 I1Cent=   0 FoldK=F
 IRaf= 940000000 NMat=  18 IRICut=      45 DoRegI=T DoRafI=T ISym2E= 2.
 FoFCou: FMM=F IPFlag=           0 FMFlag=      100000 FMFlg1=           0
         NFxFlg=           0 DoJE=F BraDBF=F KetDBF=F FulRan=T
         wScrn=  0.000000 ICntrl=       0 IOpCl=  1 I1Cent=           0 NGrid=           0
         NMat0=   18 NMatS0=     18 NMatT0=    0 NMatD0=   18 NMtDS0=    0 NMtDT0=    0
 Integrals replicated using symmetry in FoFCou.
          There are    18 degrees of freedom in the 1st order CPHF.  IDoFFX=6 NUNeed=     3.
     15 vectors produced by pass  0 Test12= 3.99D-14 5.56D-09 XBig12= 9.55D+02 1.96D+01.
 AX will form    15 AO Fock derivatives at one time.
     15 vectors produced by pass  1 Test12= 3.99D-14 5.56D-09 XBig12= 3.02D+02 4.52D+00.
     15 vectors produced by pass  2 Test12= 3.99D-14 5.56D-09 XBig12= 1.59D+01 1.13D+00.
     15 vectors produced by pass  3 Test12= 3.99D-14 5.56D-09 XBig12= 4.88D-01 2.28D-01.
     15 vectors produced by pass  4 Test12= 3.99D-14 5.56D-09 XBig12= 7.57D-03 2.44D-02.
     15 vectors produced by pass  5 Test12= 3.99D-14 5.56D-09 XBig12= 1.54D-04 3.09D-03.
     15 vectors produced by pass  6 Test12= 3.99D-14 5.56D-09 XBig12= 1.86D-06 3.25D-04.
     15 vectors produced by pass  7 Test12= 3.99D-14 5.56D-09 XBig12= 2.45D-08 3.27D-05.
     10 vectors produced by pass  8 Test12= 3.99D-14 5.56D-09 XBig12= 2.73D-10 2.33D-06.
      3 vectors produced by pass  9 Test12= 3.99D-14 5.56D-09 XBig12= 2.07D-12 2.15D-07.
      2 vectors produced by pass 10 Test12= 3.99D-14 5.56D-09 XBig12= 2.70D-14 2.22D-08.
      1 vectors produced by pass 11 Test12= 3.99D-14 5.56D-09 XBig12= 1.28D-15 8.33D-09.
 InvSVY:  IOpt=1 It=  1 EMax= 6.66D-16
 Solved reduced A of dimension   136 with    15 vectors.
 FullF1:  Do perturbations    1 to     3.
 Isotropic polarizability for W=    0.000000       80.62 Bohr**3.
 End of Minotr F.D. properties file   721 does not exist.
 End of Minotr F.D. properties file   722 does not exist.
 End of Minotr F.D. properties file   788 does not exist.
 Leave Link 1002 at Wed Aug  3 23:02:00 2016, MaxMem=    33554432 cpu:       393.6
 (Enter /home/proyectos/fulerenos/M3C-v2.0/M3C-deps_CCC/g09-AM64L-G09RevC.01/l601.exe)
 Copying SCF densities to generalized density rwf, IOpCl= 1 IROHF=0.

 **********************************************************************

            Population analysis using the SCF density.

 **********************************************************************

 Orbital symmetries:
 Alpha Orbitals:
       Occupied  (A') (A') (A') (A') (A') (A') (A') (A') (A") (A')
                 (A') (A") (A') (A') (A') (A') (A') (A') (A") (A')
                 (A") (A') (A")
       Virtual   (A') (A") (A') (A') (A') (A') (A") (A') (A') (A")
                 (A') (A') (A') (A") (A') (A") (A') (A') (A') (A')
                 (A') (A") (A') (A') (A') (A") (A') (A") (A') (A')
                 (A") (A") (A') (A') (A') (A") (A') (A") (A') (A')
                 (A") (A') (A") (A') (A') (A') (A') (A") (A') (A")
                 (A') (A') (A") (A') (A') (A') (A') (A') (A") (A")
                 (A') (A') (A") (A') (A") (A") (A') (A') (A') (A')
                 (A') (A') (A') (A") (A') (A") (A') (A") (A") (A")
                 (A') (A') (A") (A") (A') (A') (A') (A") (A') (A")
                 (A') (A") (A') (A') (A') (A") (A') (A') (A') (A')
                 (A') (A") (A') (A') (A") (A") (A') (A") (A') (A")
                 (A') (A") (A') (A') (A') (A") (A') (A") (A') (A')
                 (A") (A') (A') (A") (A') (A') (A") (A') (A") (A')
                 (A") (A') (A") (A') (A') (A') (A') (A") (A') (A")
                 (A") (A') (A") (A') (A') (A') (A') (A') (A') (A")
                 (A') (A") (A') (A') (A') (A') (A') (A') (A')
 Beta  Orbitals:
       Occupied  (A') (A') (A') (A') (A') (A') (A') (A") (A') (A')
                 (A') (A") (A') (A') (A') (A') (A') (A') (A") (A')
                 (A") (A')
       Virtual   (A') (A") (A") (A') (A') (A') (A') (A") (A') (A')
                 (A") (A') (A') (A') (A") (A') (A") (A') (A') (A')
                 (A') (A') (A') (A") (A') (A') (A") (A') (A") (A')
                 (A') (A") (A") (A') (A') (A') (A") (A') (A") (A')
                 (A') (A") (A') (A') (A") (A') (A') (A') (A") (A')
                 (A") (A') (A') (A") (A') (A') (A') (A') (A') (A")
                 (A") (A') (A") (A') (A') (A") (A') (A") (A') (A')
                 (A') (A') (A') (A') (A") (A') (A") (A') (A") (A")
                 (A') (A") (A') (A") (A") (A') (A') (A') (A") (A')
                 (A") (A') (A") (A') (A') (A') (A") (A') (A') (A')
                 (A') (A') (A") (A') (A') (A") (A") (A') (A') (A")
                 (A") (A') (A') (A") (A') (A') (A") (A') (A") (A')
                 (A') (A") (A') (A') (A") (A') (A') (A") (A') (A")
                 (A') (A") (A') (A") (A') (A') (A') (A') (A") (A')
                 (A") (A") (A') (A") (A') (A') (A') (A') (A') (A')
                 (A") (A') (A") (A') (A') (A') (A') (A') (A') (A')
 The electronic state is 2-A".
 Alpha  occ. eigenvalues --  -88.93366 -88.91436 -10.29367 -10.20759  -8.01582
 Alpha  occ. eigenvalues --   -7.99977  -5.97840  -5.97387  -5.97367  -5.96057
 Alpha  occ. eigenvalues --   -5.95996  -5.95800  -0.89259  -0.82634  -0.68106
 Alpha  occ. eigenvalues --   -0.51765  -0.44389  -0.43578  -0.42328  -0.36116
 Alpha  occ. eigenvalues --   -0.33534  -0.24804  -0.20819
 Alpha virt. eigenvalues --   -0.13727  -0.08294  -0.01161   0.00825   0.01399
 Alpha virt. eigenvalues --    0.02622   0.03834   0.04365   0.06034   0.06225
 Alpha virt. eigenvalues --    0.06974   0.08264   0.09311   0.10166   0.11112
 Alpha virt. eigenvalues --    0.12199   0.13228   0.14231   0.14755   0.16112
 Alpha virt. eigenvalues --    0.16656   0.18100   0.18437   0.21325   0.22009
 Alpha virt. eigenvalues --    0.22437   0.25523   0.25748   0.27978   0.29026
 Alpha virt. eigenvalues --    0.29169   0.30790   0.33009   0.34361   0.35680
 Alpha virt. eigenvalues --    0.38146   0.40538   0.41459   0.43081   0.44753
 Alpha virt. eigenvalues --    0.47544   0.49879   0.53548   0.54592   0.58627
 Alpha virt. eigenvalues --    0.61303   0.65061   0.65066   0.66492   0.66704
 Alpha virt. eigenvalues --    0.68879   0.71144   0.73768   0.75008   0.77935
 Alpha virt. eigenvalues --    0.81317   0.83141   0.94471   0.94500   0.94783
 Alpha virt. eigenvalues --    0.95132   0.97877   0.98058   0.98278   1.00637
 Alpha virt. eigenvalues --    1.05166   1.05595   1.07708   1.09467   1.17013
 Alpha virt. eigenvalues --    1.20387   1.27132   1.33769   1.43945   1.45072
 Alpha virt. eigenvalues --    1.47524   1.51400   1.52123   1.53046   1.58072
 Alpha virt. eigenvalues --    1.58077   1.58287   1.61169   1.65774   1.70276
 Alpha virt. eigenvalues --    1.76226   1.81311   1.82102   1.87955   1.90315
 Alpha virt. eigenvalues --    1.92513   1.92950   1.96803   2.01463   2.05762
 Alpha virt. eigenvalues --    2.07018   2.18372   2.23782   2.28499   2.33904
 Alpha virt. eigenvalues --    2.45312   2.47854   2.62398   2.71077   2.72940
 Alpha virt. eigenvalues --    2.75433   2.77317   2.80007   2.80400   2.89090
 Alpha virt. eigenvalues --    2.98908   2.99974   3.00797   3.05779   3.11322
 Alpha virt. eigenvalues --    3.12925   3.16101   3.29888   3.38369   3.48813
 Alpha virt. eigenvalues --    3.57882   3.60820   3.71131   4.16765   4.25654
 Alpha virt. eigenvalues --    4.35624   4.57521   4.57833   4.69728   4.77356
 Alpha virt. eigenvalues --    4.80261   4.97432   5.04338   5.10256   5.21806
 Alpha virt. eigenvalues --    5.46527   5.74411   6.90121   6.91630   7.00803
 Alpha virt. eigenvalues --    7.11045   7.12791   7.23532   7.25457   7.30065
 Alpha virt. eigenvalues --    7.38010   7.71763   8.60047   8.80586  17.26524
 Alpha virt. eigenvalues --   17.42034  17.48430  17.67201  17.83897  18.16945
 Alpha virt. eigenvalues --   23.78366  23.99509 189.53871 189.70385
  Beta  occ. eigenvalues --  -88.93466 -88.91303 -10.28800 -10.20004  -8.01660
  Beta  occ. eigenvalues --   -7.99855  -5.97908  -5.97606  -5.97458  -5.96001
  Beta  occ. eigenvalues --   -5.95938  -5.95347  -0.88435  -0.82097  -0.66266
  Beta  occ. eigenvalues --   -0.50634  -0.44051  -0.43036  -0.40200  -0.35775
  Beta  occ. eigenvalues --   -0.31769  -0.23837
  Beta virt. eigenvalues --   -0.13100  -0.11809  -0.04536  -0.01010   0.00984
  Beta virt. eigenvalues --    0.01605   0.02687   0.03929   0.04412   0.06156
  Beta virt. eigenvalues --    0.06333   0.06963   0.08376   0.09412   0.10998
  Beta virt. eigenvalues --    0.11208   0.12609   0.13422   0.14421   0.14901
  Beta virt. eigenvalues --    0.16200   0.16776   0.18593   0.18623   0.21799
  Beta virt. eigenvalues --    0.22259   0.22814   0.25603   0.26517   0.28002
  Beta virt. eigenvalues --    0.29289   0.29786   0.30893   0.33067   0.34536
  Beta virt. eigenvalues --    0.35746   0.39130   0.41126   0.42420   0.43321
  Beta virt. eigenvalues --    0.45445   0.48599   0.50326   0.54892   0.54998
  Beta virt. eigenvalues --    0.58930   0.61866   0.65276   0.66249   0.67026
  Beta virt. eigenvalues --    0.68707   0.69243   0.71402   0.74382   0.75146
  Beta virt. eigenvalues --    0.78254   0.81510   0.83499   0.94935   0.95290
  Beta virt. eigenvalues --    0.95540   0.95808   0.98064   0.98144   0.98477
  Beta virt. eigenvalues --    1.00736   1.05520   1.05686   1.08063   1.09883
  Beta virt. eigenvalues --    1.17159   1.20596   1.27467   1.34477   1.45205
  Beta virt. eigenvalues --    1.45284   1.49011   1.52696   1.53626   1.53700
  Beta virt. eigenvalues --    1.58486   1.59133   1.59146   1.61570   1.68104
  Beta virt. eigenvalues --    1.70945   1.77183   1.82931   1.83091   1.88548
  Beta virt. eigenvalues --    1.91063   1.92878   1.93769   1.97204   2.01941
  Beta virt. eigenvalues --    2.06090   2.08564   2.18684   2.24042   2.28754
  Beta virt. eigenvalues --    2.34224   2.45529   2.49003   2.63090   2.71840
  Beta virt. eigenvalues --    2.75889   2.78251   2.79316   2.81021   2.83258
  Beta virt. eigenvalues --    2.90880   3.00599   3.01975   3.02476   3.06978
  Beta virt. eigenvalues --    3.12845   3.14537   3.17938   3.32020   3.38766
  Beta virt. eigenvalues --    3.49310   3.59086   3.61265   3.71342   4.17316
  Beta virt. eigenvalues --    4.25978   4.35510   4.57866   4.58162   4.69746
  Beta virt. eigenvalues --    4.77296   4.80616   4.97394   5.04839   5.10352
  Beta virt. eigenvalues --    5.22112   5.46718   5.74553   6.92850   6.94218
  Beta virt. eigenvalues --    7.04460   7.14773   7.16042   7.25984   7.26044
  Beta virt. eigenvalues --    7.31536   7.39315   7.72302   8.60271   8.80822
  Beta virt. eigenvalues --   17.26612  17.42114  17.48635  17.67130  17.83886
  Beta virt. eigenvalues --   18.16967  23.79221  24.00132 189.53877 189.70411
          Condensed to atoms (all electrons):
               1          2          3          4          5
     1  S   16.535512  -0.594877   0.190737   0.026323  -0.002283
     2  S   -0.594877  16.268876   0.158938   0.227127   0.010271
     3  C    0.190737   0.158938   5.316284  -0.197959   0.038080
     4  C    0.026323   0.227127  -0.197959   6.156290   0.214161
     5  H   -0.002283   0.010271   0.038080   0.214161   0.582000
          Atomic-Atomic Spin Densities.
               1          2          3          4          5
     1  S    0.394087  -0.021821  -0.116352   0.000189   0.000009
     2  S   -0.021821  -0.166574   0.027931   0.079884  -0.008442
     3  C   -0.116352   0.027931   0.424912  -0.038457  -0.000712
     4  C    0.000189   0.079884  -0.038457   0.486653   0.025604
     5  H    0.000009  -0.008442  -0.000712   0.025604  -0.034747
 Mulliken charges and spin densities:
               1          2
     1  S   -0.155412   0.256113
     2  S   -0.070335  -0.089022
     3  C    0.493920   0.297322
     4  C   -0.425943   0.553874
     5  H    0.157770  -0.018287
 Sum of Mulliken charges =  -0.00000   1.00000
 Mulliken charges and spin densities with hydrogens summed into heavy atoms:
               1          2
     1  S   -0.155412   0.256113
     2  S   -0.070335  -0.089022
     3  C    0.493920   0.297322
     4  C   -0.268173   0.535587
 APT charges:
               1
     1  S   -0.339702
     2  S    0.169047
     3  C    0.346348
     4  C   -0.225215
     5  H    0.049523
 Sum of APT charges =  -0.00000
 APT charges with hydrogens summed into heavy atoms:
               1
     1  S   -0.339702
     2  S    0.169047
     3  C    0.346348
     4  C   -0.175693
 Electronic spatial extent (au):  <R**2>=            550.2549
 Charge=             -0.0000 electrons
 Dipole moment (field-independent basis, Debye):
    X=              1.8435    Y=              1.9211    Z=             -0.0000  Tot=              2.6626
 Quadrupole moment (field-independent basis, Debye-Ang):
   XX=            -39.7420   YY=            -36.3947   ZZ=            -38.5692
   XY=             -5.2513   XZ=             -0.0000   YZ=              0.0000
 Traceless Quadrupole moment (field-independent basis, Debye-Ang):
   XX=             -1.5067   YY=              1.8406   ZZ=             -0.3339
   XY=             -5.2513   XZ=             -0.0000   YZ=              0.0000
 Octapole moment (field-independent basis, Debye-Ang**2):
  XXX=              7.0532  YYY=             15.8761  ZZZ=             -0.0000  XYY=             10.3004
  XXY=             10.1081  XXZ=             -0.0000  XZZ=              1.8717  YZZ=              2.7215
  YYZ=             -0.0000  XYZ=             -0.0000
 Hexadecapole moment (field-independent basis, Debye-Ang**3):
 XXXX=           -111.2003 YYYY=           -608.7582 ZZZZ=            -50.7079 XXXY=             14.7744
 XXXZ=             -0.0000 YYYX=             -4.7543 YYYZ=              0.0000 ZZZX=             -0.0000
 ZZZY=              0.0000 XXYY=           -136.5797 XXZZ=            -26.6616 YYZZ=           -123.0228
 XXYZ=              0.0000 YYXZ=             -0.0000 ZZXY=              8.1135
 N-N= 1.652315499531D+02 E-N=-2.401646774318D+03  KE= 8.716469459478D+02
 Symmetry A'   KE= 7.932371011186D+02
 Symmetry A"   KE= 7.840984482916D+01
  Exact polarizability:  54.973  -0.963 141.730  -0.000  -0.000  45.165
 Approx polarizability:  96.479  -2.579 317.538   0.000  -0.000  69.335
                          Isotropic Fermi Contact Couplings
        Atom                 a.u.       MegaHertz       Gauss      10(-4) cm-1
     1  S(33)              0.00322       1.10583       0.39459       0.36886
     2  S(33)             -0.03376     -11.59730      -4.13821      -3.86844
     3  C(13)              0.02864      32.19334      11.48738      10.73854
     4  C(13)              0.03572      40.15260      14.32745      13.39347
     5  H(1)              -0.00598     -26.73892      -9.54111      -8.91915
 --------------------------------------------------------
       Center         ----  Spin Dipole Couplings  ----
                      3XX-RR        3YY-RR        3ZZ-RR
 --------------------------------------------------------
     1   Atom       -0.582966     -0.564610      1.147576
     2   Atom        0.251844      0.279515     -0.531359
     3   Atom       -0.230884     -0.228708      0.459592
     4   Atom       -0.331179     -0.307396      0.638575
     5   Atom       -0.017904      0.015066      0.002838
 --------------------------------------------------------
                        XY            XZ            YZ
 --------------------------------------------------------
     1   Atom        0.013571      0.000000      0.000000
     2   Atom        0.025129      0.000000      0.000000
     3   Atom        0.008421     -0.000000     -0.000000
     4   Atom       -0.000877      0.000000     -0.000000
     5   Atom       -0.036148     -0.000000      0.000000
 --------------------------------------------------------


 ---------------------------------------------------------------------------------
              Anisotropic Spin Dipole Couplings in Principal Axis System
 ---------------------------------------------------------------------------------

       Atom             a.u.   MegaHertz   Gauss  10(-4) cm-1        Axes

              Baa    -0.5902   -24.196    -8.634    -8.071  0.8832 -0.4689  0.0000
     1 S(33)  Bbb    -0.5574   -22.853    -8.155    -7.623  0.4689  0.8832  0.0000
              Bcc     1.1476    47.050    16.788    15.694  0.0000  0.0000  1.0000
 
              Baa    -0.5314   -21.785    -7.774    -7.267  0.0000  0.0000  1.0000
     2 S(33)  Bbb     0.2370     9.717     3.467     3.241  0.8609 -0.5088 -0.0000
              Bcc     0.2944    12.069     4.306     4.026  0.5088  0.8609 -0.0000
 
              Baa    -0.2383   -31.976   -11.410   -10.666  0.7510 -0.6603  0.0000
     3 C(13)  Bbb    -0.2213   -29.697   -10.597    -9.906  0.6603  0.7510  0.0000
              Bcc     0.4596    61.673    22.006    20.572  0.0000  0.0000  1.0000
 
              Baa    -0.3312   -44.445   -15.859   -14.825  0.9993  0.0368  0.0000
     4 C(13)  Bbb    -0.3074   -41.245   -14.717   -13.758 -0.0368  0.9993  0.0000
              Bcc     0.6386    85.691    30.577    28.583  0.0000  0.0000  1.0000
 
              Baa    -0.0411   -21.955    -7.834    -7.323  0.8411  0.5409  0.0000
     5 H(1)   Bbb     0.0028     1.514     0.540     0.505  0.0000 -0.0000  1.0000
              Bcc     0.0383    20.441     7.294     6.818 -0.5409  0.8411  0.0000
 

 ---------------------------------------------------------------------------------

 No NMR shielding tensors so no spin-rotation constants.
 Leave Link  601 at Wed Aug  3 23:02:00 2016, MaxMem=    33554432 cpu:         1.4
 (Enter /home/proyectos/fulerenos/M3C-v2.0/M3C-deps_CCC/g09-AM64L-G09RevC.01/l701.exe)
 Compute integral second derivatives.
 ... and contract with generalized density number  0.
 Leave Link  701 at Wed Aug  3 23:02:01 2016, MaxMem=    33554432 cpu:         1.0
 (Enter /home/proyectos/fulerenos/M3C-v2.0/M3C-deps_CCC/g09-AM64L-G09RevC.01/l702.exe)
 L702 exits ... SP integral derivatives will be done elsewhere.
 Leave Link  702 at Wed Aug  3 23:02:01 2016, MaxMem=    33554432 cpu:         0.1
 (Enter /home/proyectos/fulerenos/M3C-v2.0/M3C-deps_CCC/g09-AM64L-G09RevC.01/l703.exe)
 Compute integral second derivatives, UseDBF=F ICtDFT=           0.
 Integral derivatives from FoFJK, PRISM(SPDF).
 Calling FoFJK, ICntrl=    100127 FMM=F ISym2X=1 I1Cent= 0 IOpClX= 1 NMat=1 NMatS=1 NMatT=0.
 FoFJK:  IHMeth= 1 ICntrl=  100127 DoSepK=F KAlg= 0 I1Cent=   0 FoldK=F
 IRaf=         0 NMat=   1 IRICut=       1 DoRegI=T DoRafI=F ISym2E= 1.
 FoFCou: FMM=F IPFlag=           0 FMFlag=      100000 FMFlg1=         800
         NFxFlg=           0 DoJE=F BraDBF=F KetDBF=F FulRan=T
         wScrn=  0.000000 ICntrl=  100127 IOpCl=  1 I1Cent=           0 NGrid=           0
         NMat0=    1 NMatS0=      1 NMatT0=    0 NMatD0=    1 NMtDS0=    0 NMtDT0=    0
 Petite list used in FoFCou.
 Leave Link  703 at Wed Aug  3 23:02:32 2016, MaxMem=    33554432 cpu:       126.2
 (Enter /home/proyectos/fulerenos/M3C-v2.0/M3C-deps_CCC/g09-AM64L-G09RevC.01/l716.exe)
 Dipole        = 7.25296337D-01 7.55827049D-01-1.35393838D-16
 Polarizability= 5.49727751D+01-9.62557395D-01 1.41729667D+02
                -6.67513925D-08-3.34581966D-08 4.51650641D+01
 Full mass-weighted force constant matrix:
 Low frequencies ---   -7.6887   -1.1099   -0.0034    0.0018    0.0030    9.9275
 Low frequencies ---  139.6100  180.7369  454.7223
 Diagonal vibrational polarizability:
        1.3662802       5.1601965       8.0668507
 Harmonic frequencies (cm**-1), IR intensities (KM/Mole), Raman scattering
 activities (A**4/AMU), depolarization ratios for plane and unpolarized
 incident light, reduced masses (AMU), force constants (mDyne/A),
 and normal coordinates:
                      1                      2                      3
                     A'                     A"                     A'
 Frequencies --    139.6065               180.7368               454.7223
 Red. masses --      7.7533                 9.4362                10.1546
 Frc consts  --      0.0890                 0.1816                 1.2371
 IR Inten    --      0.7432                 7.3779                 4.2532
  Atom  AN      X      Y      Z        X      Y      Z        X      Y      Z
     1  16    -0.16  -0.12   0.00    -0.00  -0.00  -0.17    -0.12   0.10  -0.00
     2  16     0.18  -0.05   0.00     0.00  -0.00  -0.11    -0.14  -0.03  -0.00
     3   6     0.33   0.02  -0.00     0.00  -0.00   0.81     0.69   0.25   0.00
     4   6    -0.33   0.43  -0.00    -0.00   0.00  -0.02    -0.06  -0.42  -0.00
     5   1    -0.70   0.15   0.00    -0.00   0.00  -0.55     0.49  -0.04   0.00
                      4                      5                      6
                     A'                     A"                     A'
 Frequencies --    537.6434               537.6721               694.7730
 Red. masses --     21.2022                 1.1051                11.8119
 Frc consts  --      3.6109                 0.1882                 3.3593
 IR Inten    --     14.4872                21.3633                 3.3954
  Atom  AN      X      Y      Z        X      Y      Z        X      Y      Z
     1  16     0.14  -0.49   0.00    -0.00   0.00   0.00     0.00  -0.11   0.00
     2  16    -0.16   0.57  -0.00     0.00  -0.00  -0.03    -0.30  -0.12  -0.00
     3   6     0.20  -0.16   0.00    -0.00   0.00   0.05     0.20   0.05   0.00
     4   6    -0.16  -0.08  -0.00     0.00   0.00  -0.07     0.57   0.53  -0.00
     5   1     0.43   0.32   0.00    -0.00  -0.00   1.00     0.29   0.39   0.00
                      7                      8                      9
                     A'                     A'                     A'
 Frequencies --   1073.5695              1452.6647              2955.2713
 Red. masses --      1.1279                13.2489                 1.0816
 Frc consts  --      0.7659                16.4726                 5.5658
 IR Inten    --     33.1208               202.5082                17.1599
  Atom  AN      X      Y      Z        X      Y      Z        X      Y      Z
     1  16     0.00   0.00  -0.00     0.06  -0.24   0.00    -0.00   0.00   0.00
     2  16     0.01  -0.03  -0.00     0.04  -0.08   0.00     0.00   0.00   0.00
     3   6    -0.03  -0.01   0.00    -0.25   0.92  -0.00     0.00   0.00  -0.00
     4   6    -0.08   0.03  -0.00    -0.03  -0.07   0.00     0.04  -0.07   0.00
     5   1     0.78   0.61   0.00    -0.04  -0.09  -0.00    -0.56   0.82  -0.00

 -------------------
 - Thermochemistry -
 -------------------
 Temperature   298.150 Kelvin.  Pressure   1.00000 Atm.
 Atom     1 has atomic number 16 and mass  31.97207
 Atom     2 has atomic number 16 and mass  31.97207
 Atom     3 has atomic number  6 and mass  12.00000
 Atom     4 has atomic number  6 and mass  12.00000
 Atom     5 has atomic number  1 and mass   1.00783
 Molecular mass:    88.95197 amu.
 Principal axes and moments of inertia in atomic units:
                           1         2         3
     Eigenvalues --    61.68176 832.44246 894.12422
           X           -0.13533   0.99080  -0.00000
           Y            0.99080   0.13533   0.00000
           Z           -0.00000   0.00000   1.00000
 This molecule is an asymmetric top.
 Rotational symmetry number  1.
 Rotational temperatures (Kelvin)      1.40420     0.10405     0.09687
 Rotational constants (GHZ):          29.25891     2.16801     2.01845
 Zero-point vibrational energy      48010.1 (Joules/Mol)
                                   11.47469 (Kcal/Mol)
 Warning -- explicit consideration of   5 degrees of freedom as
           vibrations may cause significant error
 Vibrational temperatures:    200.86   260.04   654.24   773.55   773.59
          (Kelvin)            999.62  1544.63  2090.06  4251.97
 
 Zero-point correction=                           0.018286 (Hartree/Particle)
 Thermal correction to Energy=                    0.023175
 Thermal correction to Enthalpy=                  0.024120
 Thermal correction to Gibbs Free Energy=        -0.010816
 Sum of electronic and zero-point Energies=           -873.086369
 Sum of electronic and thermal Energies=              -873.081480
 Sum of electronic and thermal Enthalpies=            -873.080536
 Sum of electronic and thermal Free Energies=         -873.115471
 
                     E (Thermal)             CV                S
                      KCal/Mol        Cal/Mol-Kelvin    Cal/Mol-Kelvin
 Total                   14.543             14.656             73.527
 Electronic               0.000              0.000              1.377
 Translational            0.889              2.981             39.369
 Rotational               0.889              2.981             25.332
 Vibrational             12.765              8.695              7.449
 Vibration     1          0.615              1.914              2.809
 Vibration     2          0.630              1.866              2.321
 Vibration     3          0.813              1.350              0.782
 Vibration     4          0.893              1.167              0.570
 Vibration     5          0.893              1.167              0.570
                       Q            Log10(Q)             Ln(Q)
 Total Bot       0.943653D+05          4.974812         11.454928
 Total V=0       0.243111D+14         13.385805         30.821956
 Vib (Bot)       0.186549D-07         -7.729207        -17.797157
 Vib (Bot)    1  0.145665D+01          0.163354          0.376137
 Vib (Bot)    2  0.111101D+01          0.045716          0.105266
 Vib (Bot)    3  0.375676D+00         -0.425186         -0.979027
 Vib (Bot)    4  0.295340D+00         -0.529677         -1.219627
 Vib (Bot)    5  0.295317D+00         -0.529712         -1.219707
 Vib (V=0)       0.480602D+01          0.681786          1.569870
 Vib (V=0)    1  0.204007D+01          0.309645          0.712985
 Vib (V=0)    2  0.171833D+01          0.235107          0.541354
 Vib (V=0)    3  0.112541D+01          0.051309          0.118144
 Vib (V=0)    4  0.108071D+01          0.033710          0.077620
 Vib (V=0)    5  0.108070D+01          0.033705          0.077609
 Electronic      0.200000D+01          0.301030          0.693147
 Translational   0.329753D+08          7.518189         17.311269
 Rotational      0.767010D+05          4.884801         11.247670
 
                                                              b3lyp opt
                                                             IR Spectrum
 
     2                                                                1               1                                              
     9                                                                4               0                6    55   4           1 1     
     5                                                                5               7                9    33   5           8 4     
     5                                                                3               4                5    88   5           1 0     
 
     X                                                                X               X                X    XX   X           X X     
     X                                                                X               X                     X                        
                                                                      X               X                                              
                                                                      X                                                              
                                                                      X                                                              
                                                                      X                                                              
                                                                      X                                                              
                                                                      X                                                              
                                                                      X                                                              
                                                                      X                                                              
                                                                      X                                                              
                                                                      X                                                              
                                                                      X                                                              
                                                                      X                                                              
                                                                      X                                                              
                                                                      X                                                              
                                                                      X                                                              
                                                                      X                                                              
                                                                      X                                                              
                                                                      X                                                              
 
 ***** Axes restored to original set *****
 -------------------------------------------------------------------
 Center     Atomic                   Forces (Hartrees/Bohr)
 Number     Number              X              Y              Z
 -------------------------------------------------------------------
      1       16          -0.000011723   -0.000002110    0.000000812
      2       16           0.000094878    0.000006804   -0.000012134
      3        6          -0.000028159   -0.000013933   -0.000002850
      4        6          -0.000063477   -0.000003450    0.000008715
      5        1           0.000008480    0.000012689    0.000005457
 -------------------------------------------------------------------
 Cartesian Forces:  Max     0.000094878 RMS     0.000031319
 Z-matrix is all fixed cartesians, so copy forces.
 Force constants in Cartesian coordinates: 
                1             2             3             4             5 
      1  0.261696D+00
      2 -0.209061D+00  0.183630D+00
      3 -0.156183D+00  0.132174D+00  0.101513D+00
      4 -0.532235D-02  0.201781D-01  0.121023D-01  0.230984D+00
      5  0.131125D-01  0.676941D-02  0.541435D-03 -0.240008D-01  0.177637D+00
      6  0.827636D-02 -0.636557D-03  0.764400D-05 -0.500404D-01  0.954282D-01
      7 -0.255824D+00  0.197141D+00  0.148345D+00 -0.175981D+00  0.473653D-01
      8  0.194784D+00 -0.188887D+00 -0.131328D+00  0.631495D-01 -0.813040D-01
      9  0.147069D+00 -0.131721D+00 -0.102172D+00  0.619832D-01 -0.468838D-01
     10 -0.223842D-02 -0.793944D-02 -0.401551D-02 -0.464203D-01 -0.221930D-01
     11 -0.945592D-04 -0.318788D-02 -0.141935D-02 -0.812994D-01 -0.863608D-01
     12  0.232370D-03 -0.111430D-03 -0.636631D-03 -0.351256D-01 -0.468222D-01
     13  0.168938D-02 -0.318322D-03 -0.248940D-03 -0.326097D-02 -0.142840D-01
     14  0.125962D-02  0.167604D-02  0.314663D-04  0.219726D-01 -0.167416D-01
     15  0.605489D-03  0.294544D-03  0.128863D-02  0.110806D-01 -0.226368D-02
                6             7             8             9            10 
      6  0.688080D-01
      7  0.534363D-01  0.418870D+00
      8 -0.495154D-01 -0.286400D+00  0.307740D+00
      9 -0.450246D-01 -0.222326D+00  0.205976D+00  0.164131D+00
     10 -0.312041D-02  0.143893D-01  0.297700D-01  0.129101D-01  0.279925D+00
     11 -0.369678D-01  0.431992D-01 -0.299409D-01 -0.207813D-01 -0.553715D-01
     12 -0.125548D-01  0.201818D-01 -0.185423D-01 -0.182687D-01 -0.755670D-01
     13 -0.855184D-02 -0.145420D-02 -0.130346D-02  0.364219D-03 -0.245656D+00
     14 -0.830846D-02 -0.130565D-02 -0.760805D-02 -0.658976D-02  0.557339D-01
     15 -0.112362D-01  0.363029D-03 -0.659013D-02  0.133480D-02  0.697928D-01
               11            12            13            14            15 
     11  0.159927D+00
     12  0.923040D-01  0.690911D-01
     13  0.935663D-01  0.902785D-01  0.248682D+00
     14 -0.404376D-01 -0.268281D-01 -0.776605D-01  0.631112D-01
     15 -0.331356D-01 -0.376310D-01 -0.818419D-01  0.416948D-01  0.462437D-01
 Leave Link  716 at Wed Aug  3 23:02:32 2016, MaxMem=    33554432 cpu:         0.1
 (Enter /home/proyectos/fulerenos/M3C-v2.0/M3C-deps_CCC/g09-AM64L-G09RevC.01/l103.exe)

 GradGradGradGradGradGradGradGradGradGradGradGradGradGradGradGradGradGrad
 Berny optimization.
 Search for a local minimum.
 Step number   1 out of a maximum of    2
 All quantities printed in internal units (Hartrees-Bohrs-Radians)
 Second derivative matrix not updated -- analytic derivatives used.
 The second derivative matrix:
                          X1        Y1        Z1        X2        Y2
           X1           0.26170
           Y1          -0.20906   0.18363
           Z1          -0.15618   0.13217   0.10151
           X2          -0.00532   0.02018   0.01210   0.23098
           Y2           0.01311   0.00677   0.00054  -0.02400   0.17764
           Z2           0.00828  -0.00064   0.00001  -0.05004   0.09543
           X3          -0.25582   0.19714   0.14835  -0.17598   0.04737
           Y3           0.19478  -0.18889  -0.13133   0.06315  -0.08130
           Z3           0.14707  -0.13172  -0.10217   0.06198  -0.04688
           X4          -0.00224  -0.00794  -0.00402  -0.04642  -0.02219
           Y4          -0.00009  -0.00319  -0.00142  -0.08130  -0.08636
           Z4           0.00023  -0.00011  -0.00064  -0.03513  -0.04682
           X5           0.00169  -0.00032  -0.00025  -0.00326  -0.01428
           Y5           0.00126   0.00168   0.00003   0.02197  -0.01674
           Z5           0.00061   0.00029   0.00129   0.01108  -0.00226
                          Z2        X3        Y3        Z3        X4
           Z2           0.06881
           X3           0.05344   0.41887
           Y3          -0.04952  -0.28640   0.30774
           Z3          -0.04502  -0.22233   0.20598   0.16413
           X4          -0.00312   0.01439   0.02977   0.01291   0.27993
           Y4          -0.03697   0.04320  -0.02994  -0.02078  -0.05537
           Z4          -0.01255   0.02018  -0.01854  -0.01827  -0.07557
           X5          -0.00855  -0.00145  -0.00130   0.00036  -0.24566
           Y5          -0.00831  -0.00131  -0.00761  -0.00659   0.05573
           Z5          -0.01124   0.00036  -0.00659   0.00133   0.06979
                          Y4        Z4        X5        Y5        Z5
           Y4           0.15993
           Z4           0.09230   0.06909
           X5           0.09357   0.09028   0.24868
           Y5          -0.04044  -0.02683  -0.07766   0.06311
           Z5          -0.03314  -0.03763  -0.08184   0.04169   0.04624
 ITU=  0
     Eigenvalues ---    0.00830   0.01061   0.02860   0.05893   0.10241
     Eigenvalues ---    0.30823   0.37099   0.59641   1.19379
 Angle between quadratic step and forces=  67.25 degrees.
 ClnCor:  largest displacement from symmetrization is 1.83D-11 for atom     5.
 Linear search not attempted -- first point.
 ClnCor:  largest displacement from symmetrization is 3.41D-15 for atom     5.
 B after Tr=     0.000261   -0.000024   -0.000057
         Rot=    1.000000   -0.000013    0.000042   -0.000078 Ang=  -0.01 deg.
 Variable       Old X    -DE/DX   Delta X   Delta X   Delta X     New X
                                 (Linear)    (Quad)   (Total)
    X1       -3.20837  -0.00001   0.00000  -0.00067  -0.00100  -3.20936
    Y1        2.85072  -0.00000   0.00000  -0.00135  -0.00193   2.84879
    Z1        1.72696   0.00000   0.00000  -0.00062  -0.00088   1.72608
    X2        1.17724   0.00009   0.00000   0.00160   0.00198   1.17922
    Y2       -0.36993   0.00001   0.00000   0.00052   0.00070  -0.36923
    Z2       -0.74815  -0.00001   0.00000   0.00002   0.00005  -0.74810
    X3       -1.20485  -0.00003   0.00000   0.00135   0.00139  -1.20346
    Y3        1.15035  -0.00001   0.00000   0.00059   0.00036   1.15071
    Z3        0.47221  -0.00000   0.00000   0.00009  -0.00004   0.47217
    X4        0.28912  -0.00006   0.00000  -0.00182  -0.00088   0.28824
    Y4       -3.14387  -0.00000   0.00000   0.00103   0.00111  -3.14276
    Z4       -2.10212   0.00001   0.00000   0.00086   0.00075  -2.10138
    X5        2.18311   0.00001   0.00000  -0.00257  -0.00148   2.18162
    Y5       -3.75267   0.00001   0.00000  -0.00063  -0.00024  -3.75292
    Z5       -2.74755   0.00001   0.00000   0.00008   0.00012  -2.74744
         Item               Value     Threshold  Converged?
 Maximum Force            0.000095     0.000450     YES
 RMS     Force            0.000031     0.000300     YES
 Maximum Displacement     0.001978     0.001800     NO 
 RMS     Displacement     0.001058     0.001200     YES
 Predicted change in Energy=-1.020637D-07
 GradGradGradGradGradGradGradGradGradGradGradGradGradGradGradGradGradGrad

 Leave Link  103 at Wed Aug  3 23:02:32 2016, MaxMem=    33554432 cpu:         0.1
 (Enter /home/proyectos/fulerenos/M3C-v2.0/M3C-deps_CCC/g09-AM64L-G09RevC.01/l9999.exe)
 1\1\GINC-DEPAZ30\Freq\UB3LYP\6-311++G(3df,2p)\C2H1S2(2)\NAGUIRRE\03-Au
 g-2016\0\\#p b3lyp/6-311++G(3df,2p) freq\\b3lyp opt\\0,2\S,-1.697794,1
 .508535,0.913868\S,0.622971,-0.195758,-0.3959029999\C,-0.637579138,0.6
 087369972,0.2498801267\C,0.152997723,-1.663664905,-1.1123966119\H,1.15
 52499839,-1.9858291077,-1.4539411805\\Version=EM64L-G09RevE.01\State=2
 -A"\HF=-873.1046554\S2=0.770691\S2-1=0.\S2A=0.750137\RMSD=5.529e-09\RM
 SF=3.132e-05\ZeroPoint=0.0182861\Thermal=0.0231754\Dipole=0.2586138,0.
 9100769,0.4496757\DipoleDeriv=-0.4042916,0.6307493,0.4341788,0.4874576
 ,-0.4681353,-0.4167121,0.3565886,-0.440602,-0.1466793,0.0124952,0.1520
 667,0.1295382,-0.1255986,0.2288807,-0.0151763,-0.0208132,-0.0614693,0.
 265765,0.5380355,-0.6663142,-0.4788237,-0.5938374,0.3770759,0.3951733,
 -0.4395787,0.4072568,0.1239319,-0.0075515,-0.1662521,-0.158828,0.21861
 06,-0.2921522,0.0329128,0.0495691,0.0970779,-0.3759427,-0.1386874,0.04
 97502,0.0739346,0.0133678,0.1543308,0.0038025,0.0542341,-0.0022633,0.1
 329251\Polar=76.0013854,-30.5445064,98.6475987,-21.680471,34.0524018,6
 7.2185218\PG=CS [SG(C2H1S2)]\NImag=0\\0.26169578,-0.20906132,0.1836296
 1,-0.15618317,0.13217416,0.10151271,-0.00532235,0.02017810,0.01210227,
 0.23098415,0.01311250,0.00676941,0.00054144,-0.02400079,0.17763689,0.0
 0827636,-0.00063656,0.00000764,-0.05004037,0.09542819,0.06880797,-0.25
 582440,0.19714099,0.14834535,-0.17598052,0.04736529,0.05343626,0.41886
 984,0.19478377,-0.18888718,-0.13132772,0.06314949,-0.08130396,-0.04951
 536,-0.28639984,0.30774010,0.14706895,-0.13172072,-0.10217235,0.061983
 16,-0.04688378,-0.04502464,-0.22232646,0.20597552,0.16413090,-0.002238
 42,-0.00793944,-0.00401551,-0.04642031,-0.02219300,-0.00312041,0.01438
 928,0.02977004,0.01291013,0.27992543,-0.00009456,-0.00318788,-0.001419
 35,-0.08129944,-0.08636078,-0.03696781,0.04319922,-0.02994092,-0.02078
 126,-0.05537152,0.15992718,0.00023237,-0.00011143,-0.00063663,-0.03512
 562,-0.04682216,-0.01255481,0.02018182,-0.01854232,-0.01826871,-0.0755
 6702,0.09230398,0.06909112,0.00168938,-0.00031832,-0.00024894,-0.00326
 097,-0.01428399,-0.00855184,-0.00145420,-0.00130346,0.00036422,-0.2456
 5598,0.09356630,0.09027845,0.24868177,0.00125962,0.00167604,0.00003147
 ,0.02197264,-0.01674156,-0.00830846,-0.00130565,-0.00760805,-0.0065897
 6,0.05573393,-0.04043760,-0.02682807,-0.07766054,0.06311117,0.00060549
 ,0.00029454,0.00128863,0.01108056,-0.00226368,-0.01123616,0.00036303,-
 0.00659013,0.00133480,0.06979281,-0.03313557,-0.03763097,-0.08184189,0
 .04169483,0.04624370\\0.00001172,0.00000211,-0.00000081,-0.00009488,-0
 .00000680,0.00001213,0.00002816,0.00001393,0.00000285,0.00006348,0.000
 00345,-0.00000871,-0.00000848,-0.00001269,-0.00000546\\\@


 NOTHING WILL BE ATTEMPTED IF ALL POSSIBLE OBJECTIONS
 MUST FIRST BE OVERCOME.

                               -- THE GOLDEN PRINCIPLE,
                    PAUL DICKSON'S "THE OFFICIAL RULES"
 Job cpu time:       0 days  0 hours 15 minutes 58.5 seconds.
 File lengths (MBytes):  RWF=     42 Int=      0 D2E=      0 Chk=      4 Scr=      1
 Normal termination of Gaussian 09 at Wed Aug  3 23:02:32 2016.
