 Entering Gaussian System, Link 0=/home/proyectos/fulerenos/M3C-v2.0/M3C-deps_CCC/g09-AM64L-G09RevC.01/g09
 Initial command:
 /home/proyectos/fulerenos/M3C-v2.0/M3C-deps_CCC/g09-AM64L-G09RevC.01/l1.exe "/scratch/naguirre/gaussian/Gau-8237.inp" -scrdir="/scratch/naguirre/gaussian/"
 Entering Link 1 = /home/proyectos/fulerenos/M3C-v2.0/M3C-deps_CCC/g09-AM64L-G09RevC.01/l1.exe PID=      8246.
  
 Copyright (c) 1988,1990,1992,1993,1995,1998,2003,2009,2015,
            Gaussian, Inc.  All Rights Reserved.
  
 This is part of the Gaussian(R) 09 program.  It is based on
 the Gaussian(R) 03 system (copyright 2003, Gaussian, Inc.),
 the Gaussian(R) 98 system (copyright 1998, Gaussian, Inc.),
 the Gaussian(R) 94 system (copyright 1995, Gaussian, Inc.),
 the Gaussian 92(TM) system (copyright 1992, Gaussian, Inc.),
 the Gaussian 90(TM) system (copyright 1990, Gaussian, Inc.),
 the Gaussian 88(TM) system (copyright 1988, Gaussian, Inc.),
 the Gaussian 86(TM) system (copyright 1986, Carnegie Mellon
 University), and the Gaussian 82(TM) system (copyright 1983,
 Carnegie Mellon University). Gaussian is a federally registered
 trademark of Gaussian, Inc.
  
 This software contains proprietary and confidential information,
 including trade secrets, belonging to Gaussian, Inc.
  
 This software is provided under written license and may be
 used, copied, transmitted, or stored only in accord with that
 written license.
  
 The following legend is applicable only to US Government
 contracts under FAR:
  
                    RESTRICTED RIGHTS LEGEND
  
 Use, reproduction and disclosure by the US Government is
 subject to restrictions as set forth in subparagraphs (a)
 and (c) of the Commercial Computer Software - Restricted
 Rights clause in FAR 52.227-19.
  
 Gaussian, Inc.
 340 Quinnipiac St., Bldg. 40, Wallingford CT 06492
  
  
 ---------------------------------------------------------------
 Warning -- This program may not be used in any manner that
 competes with the business of Gaussian, Inc. or will provide
 assistance to any competitor of Gaussian, Inc.  The licensee
 of this program is prohibited from giving any competitor of
 Gaussian, Inc. access to this program.  By using this program,
 the user acknowledges that Gaussian, Inc. is engaged in the
 business of creating and licensing software in the field of
 computational chemistry and represents and warrants to the
 licensee that it is not a competitor of Gaussian, Inc. and that
 it will not use this program in any manner prohibited above.
 ---------------------------------------------------------------
  

 Cite this work as:
 Gaussian 09, Revision E.01,
 M. J. Frisch, G. W. Trucks, H. B. Schlegel, G. E. Scuseria, 
 M. A. Robb, J. R. Cheeseman, G. Scalmani, V. Barone, B. Mennucci, 
 G. A. Petersson, H. Nakatsuji, M. Caricato, X. Li, H. P. Hratchian, 
 A. F. Izmaylov, J. Bloino, G. Zheng, J. L. Sonnenberg, M. Hada, 
 M. Ehara, K. Toyota, R. Fukuda, J. Hasegawa, M. Ishida, T. Nakajima, 
 Y. Honda, O. Kitao, H. Nakai, T. Vreven, J. A. Montgomery, Jr., 
 J. E. Peralta, F. Ogliaro, M. Bearpark, J. J. Heyd, E. Brothers, 
 K. N. Kudin, V. N. Staroverov, T. Keith, R. Kobayashi, J. Normand, 
 K. Raghavachari, A. Rendell, J. C. Burant, S. S. Iyengar, J. Tomasi, 
 M. Cossi, N. Rega, J. M. Millam, M. Klene, J. E. Knox, J. B. Cross, 
 V. Bakken, C. Adamo, J. Jaramillo, R. Gomperts, R. E. Stratmann, 
 O. Yazyev, A. J. Austin, R. Cammi, C. Pomelli, J. W. Ochterski, 
 R. L. Martin, K. Morokuma, V. G. Zakrzewski, G. A. Voth, 
 P. Salvador, J. J. Dannenberg, S. Dapprich, A. D. Daniels, 
 O. Farkas, J. B. Foresman, J. V. Ortiz, J. Cioslowski, 
 and D. J. Fox, Gaussian, Inc., Wallingford CT, 2013.
 
 ******************************************
 Gaussian 09:  EM64L-G09RevE.01 30-Nov-2015
                 3-Aug-2016 
 ******************************************
 %NProcShared=4
 Will use up to    4 processors via shared memory.
 ------------------------------
 #p b3lyp/6-311++G(3df,2p) freq
 ------------------------------
 1/10=4,30=1,38=1/1,3;
 2/12=2,17=6,18=5,40=1/2;
 3/5=4,6=6,7=1216,11=2,16=1,25=1,30=1,71=2,74=-5,140=1/1,2,3;
 4//1;
 5/5=2,38=5,98=1/2;
 8/6=4,10=90,11=11/1;
 11/6=1,8=1,9=11,15=111,16=1/1,2,10;
 10/6=1/2;
 6/7=2,8=2,9=2,10=2,18=1,28=1/1;
 7/8=1,10=1,25=1/1,2,3,16;
 1/10=4,30=1/3;
 99//99;
 Leave Link    1 at Wed Aug  3 20:07:08 2016, MaxMem=           0 cpu:         0.4
 (Enter /home/proyectos/fulerenos/M3C-v2.0/M3C-deps_CCC/g09-AM64L-G09RevC.01/l101.exe)
 ---------
 b3lyp opt
 ---------
 Symbolic Z-matrix:
 Charge =  2 Multiplicity = 2
 S                    -2.00789   0.90908   1.33334 
 S                     1.20193  -0.60842  -1.26858 
 C                    -0.94912   0.35474   0.39484 
 C                    -0.05821  -0.13804  -0.43321 
 H                     0.51595  -1.31758  -2.24098 
 
 NAtoms=      5 NQM=        5 NQMF=       0 NMMI=      0 NMMIF=      0
                NMic=       0 NMicF=      0.
                    Isotopes and Nuclear Properties:
 (Nuclear quadrupole moments (NQMom) in fm**2, nuclear magnetic moments (NMagM)
  in nuclear magnetons)

  Atom         1           2           3           4           5
 IAtWgt=          32          32          12          12           1
 AtmWgt=  31.9720718  31.9720718  12.0000000  12.0000000   1.0078250
 NucSpn=           0           0           0           0           1
 AtZEff=   0.0000000   0.0000000   0.0000000   0.0000000   0.0000000
 NQMom=    0.0000000   0.0000000   0.0000000   0.0000000   0.0000000
 NMagM=    0.0000000   0.0000000   0.0000000   0.0000000   2.7928460
 AtZNuc=  16.0000000  16.0000000   6.0000000   6.0000000   1.0000000
 Leave Link  101 at Wed Aug  3 20:07:08 2016, MaxMem=    33554432 cpu:         0.3
 (Enter /home/proyectos/fulerenos/M3C-v2.0/M3C-deps_CCC/g09-AM64L-G09RevC.01/l103.exe)

 GradGradGradGradGradGradGradGradGradGradGradGradGradGradGradGradGradGrad
 Berny optimization.
 Initialization pass.
 Trust Radius=3.00D-01 FncErr=1.00D-07 GrdErr=1.00D-07
 Number of steps in this run=      2 maximum allowed number of steps=      2.
 GradGradGradGradGradGradGradGradGradGradGradGradGradGradGradGradGradGrad

 Leave Link  103 at Wed Aug  3 20:07:08 2016, MaxMem=    33554432 cpu:         0.1
 (Enter /home/proyectos/fulerenos/M3C-v2.0/M3C-deps_CCC/g09-AM64L-G09RevC.01/l202.exe)
                          Input orientation:                          
 ---------------------------------------------------------------------
 Center     Atomic      Atomic             Coordinates (Angstroms)
 Number     Number       Type             X           Y           Z
 ---------------------------------------------------------------------
      1         16           0       -2.007890    0.909080    1.333343
      2         16           0        1.201932   -0.608416   -1.268577
      3          6           0       -0.949120    0.354737    0.394843
      4          6           0       -0.058210   -0.138044   -0.433209
      5          1           0        0.515952   -1.317580   -2.240975
 ---------------------------------------------------------------------
                    Distance matrix (angstroms):
                    1          2          3          4          5
     1  S    0.000000
     2  S    4.401788   0.000000
     3  C    1.519563   2.884728   0.000000
     4  C    2.831683   1.583366   1.312335   0.000000
     5  H    4.909536   1.385294   3.448277   2.233604   0.000000
 Stoichiometry    C2HS2(2+,2)
 Framework group  C1[X(C2HS2)]
 Deg. of freedom     9
 Full point group                 C1      NOp   1
 Largest Abelian subgroup         C1      NOp   1
 Largest concise Abelian subgroup C1      NOp   1
                         Standard orientation:                         
 ---------------------------------------------------------------------
 Center     Atomic      Atomic             Coordinates (Angstroms)
 Number     Number       Type             X           Y           Z
 ---------------------------------------------------------------------
      1         16           0       -2.250102   -0.012172   -0.000106
      2         16           0        2.150640   -0.108139   -0.000082
      3          6           0       -0.731001    0.025287    0.000279
      4          6           0        0.579733    0.090101    0.000268
      5          1           0        2.499002    1.232639   -0.000283
 ---------------------------------------------------------------------
 Rotational constants (GHZ):    256.6740259      1.5480966      1.5388154
 Leave Link  202 at Wed Aug  3 20:07:09 2016, MaxMem=    33554432 cpu:         0.1
 (Enter /home/proyectos/fulerenos/M3C-v2.0/M3C-deps_CCC/g09-AM64L-G09RevC.01/l301.exe)
 Standard basis: 6-311++G(3df,2p) (5D, 7F)
 Ernie: Thresh=  0.10000D-02 Tol=  0.10000D-05 Strict=F.
 There are   206 symmetry adapted cartesian basis functions of A   symmetry.
 There are   182 symmetry adapted basis functions of A   symmetry.
   182 basis functions,   272 primitive gaussians,   206 cartesian basis functions
    22 alpha electrons       21 beta electrons
       nuclear repulsion energy       156.5372256511 Hartrees.
 IExCor=  402 DFT=T Ex+Corr=B3LYP ExCW=0 ScaHFX=  0.200000
 ScaDFX=  0.800000  0.720000  1.000000  0.810000 ScalE2=  1.000000  1.000000
 IRadAn=      0 IRanWt=     -1 IRanGd=            0 ICorTp=0 IEmpDi=  4
 NAtoms=    5 NActive=    5 NUniq=    5 SFac= 1.00D+00 NAtFMM=   60 NAOKFM=F Big=F
 Integral buffers will be    131072 words long.
 Raffenetti 2 integral format.
 Two-electron integral symmetry is turned on.
 Leave Link  301 at Wed Aug  3 20:07:09 2016, MaxMem=    33554432 cpu:         0.5
 (Enter /home/proyectos/fulerenos/M3C-v2.0/M3C-deps_CCC/g09-AM64L-G09RevC.01/l302.exe)
 NPDir=0 NMtPBC=     1 NCelOv=     1 NCel=       1 NClECP=     1 NCelD=      1
         NCelK=      1 NCelE2=     1 NClLst=     1 CellRange=     0.0.
 One-electron integrals computed using PRISM.
 NBasis=   182 RedAO= T EigKep=  2.11D-06  NBF=   182
 NBsUse=   182 1.00D-06 EigRej= -1.00D+00 NBFU=   182
 Precomputing XC quadrature grid using
 IXCGrd= 4 IRadAn=           0 IRanWt=          -1 IRanGd=           0 AccXCQ= 0.00D+00.
 Generated NRdTot=       0 NPtTot=           0 NUsed=           0 NTot=          32
 NSgBfM=   204   204   204   204   204 MxSgAt=     5 MxSgA2=     5.
 Leave Link  302 at Wed Aug  3 20:07:10 2016, MaxMem=    33554432 cpu:         2.3
 (Enter /home/proyectos/fulerenos/M3C-v2.0/M3C-deps_CCC/g09-AM64L-G09RevC.01/l303.exe)
 DipDrv:  MaxL=1.
 Leave Link  303 at Wed Aug  3 20:07:10 2016, MaxMem=    33554432 cpu:         0.2
 (Enter /home/proyectos/fulerenos/M3C-v2.0/M3C-deps_CCC/g09-AM64L-G09RevC.01/l401.exe)
 ExpMin= 3.60D-02 ExpMax= 9.34D+04 ExpMxC= 3.17D+03 IAcc=3 IRadAn=         5 AccDes= 0.00D+00
 Harris functional with IExCor=  402 and IRadAn=       5 diagonalized for initial guess.
 HarFok:  IExCor=  402 AccDes= 0.00D+00 IRadAn=         5 IDoV= 1 UseB2=F ITyADJ=14
 ICtDFT=  3500011 ScaDFX=  1.000000  1.000000  1.000000  1.000000
 FoFCou: FMM=F IPFlag=           0 FMFlag=      100000 FMFlg1=           0
         NFxFlg=           0 DoJE=T BraDBF=F KetDBF=T FulRan=T
         wScrn=  0.000000 ICntrl=     500 IOpCl=  0 I1Cent=   200000004 NGrid=           0
         NMat0=    1 NMatS0=      1 NMatT0=    0 NMatD0=    1 NMtDS0=    0 NMtDT0=    0
 Petite list used in FoFCou.
 Harris En= -872.659835788831    
 JPrj=0 DoOrth=F DoCkMO=F.
 Initial guess <Sx>= 0.0000 <Sy>= 0.0000 <Sz>= 0.5000 <S**2>= 0.7500 S= 0.5000
 Leave Link  401 at Wed Aug  3 20:07:12 2016, MaxMem=    33554432 cpu:         5.6
 (Enter /home/proyectos/fulerenos/M3C-v2.0/M3C-deps_CCC/g09-AM64L-G09RevC.01/l502.exe)
 UHF open shell SCF:
 Using DIIS extrapolation, IDIIS=  1040.
 Integral symmetry usage will be decided dynamically.
 IVT=      148578 IEndB=      148578 NGot=    33554432 MDV=    33465137
 LenX=    33465137 LenY=    33422260
 Requested convergence on RMS density matrix=1.00D-08 within 128 cycles.
 Requested convergence on MAX density matrix=1.00D-06.
 Requested convergence on             energy=1.00D-06.
 No special actions if energy rises.
 Fock matrices will be formed incrementally for  20 cycles.

 Cycle   1  Pass 1  IDiag  1:
 FoFJK:  IHMeth= 1 ICntrl=       0 DoSepK=F KAlg= 0 I1Cent=   0 FoldK=F
 IRaf= 930000000 NMat=   1 IRICut=       1 DoRegI=T DoRafI=F ISym2E= 0.
 FoFCou: FMM=F IPFlag=           0 FMFlag=      100000 FMFlg1=           0
         NFxFlg=           0 DoJE=F BraDBF=F KetDBF=F FulRan=T
         wScrn=  0.000000 ICntrl=       0 IOpCl=  1 I1Cent=           0 NGrid=           0
         NMat0=    1 NMatS0=      1 NMatT0=    0 NMatD0=    1 NMtDS0=    0 NMtDT0=    0
 Symmetry not used in FoFCou.
 E= -872.214286223797    
 DIIS: error= 3.21D-02 at cycle   1 NSaved=   1.
 NSaved= 1 IEnMin= 1 EnMin= -872.214286223797     IErMin= 1 ErrMin= 3.21D-02
 ErrMax= 3.21D-02  0.00D+00 EMaxC= 1.00D-01 BMatC= 6.58D-01 BMatP= 6.58D-01
 IDIUse=3 WtCom= 6.79D-01 WtEn= 3.21D-01
 Coeff-Com:  0.100D+01
 Coeff-En:   0.100D+01
 Coeff:      0.100D+01
 Gap=     0.072 Goal=   None    Shift=    0.000
 Gap=     0.162 Goal=   None    Shift=    0.000
 GapD=    0.072 DampG=0.500 DampE=0.500 DampFc=0.2500 IDamp=-1.
 Damping current iteration by 2.50D-01
 RMSDP=1.05D-02 MaxDP=6.87D-01              OVMax= 4.79D-01

 Cycle   2  Pass 1  IDiag  1:
 RMSU=  2.46D-03    CP:  1.02D+00
 E= -872.252878014906     Delta-E=       -0.038591791109 Rises=F Damp=T
 DIIS: error= 1.22D-02 at cycle   2 NSaved=   2.
 NSaved= 2 IEnMin= 2 EnMin= -872.252878014906     IErMin= 2 ErrMin= 1.22D-02
 ErrMax= 1.22D-02  0.00D+00 EMaxC= 1.00D-01 BMatC= 1.11D-01 BMatP= 6.58D-01
 IDIUse=3 WtCom= 8.78D-01 WtEn= 1.22D-01
 Coeff-Com: -0.263D+00 0.126D+01
 Coeff-En:   0.196D+00 0.804D+00
 Coeff:     -0.207D+00 0.121D+01
 Gap=     0.106 Goal=   None    Shift=    0.000
 Gap=     0.103 Goal=   None    Shift=    0.000
 RMSDP=2.02D-02 MaxDP=1.70D+00 DE=-3.86D-02 OVMax= 4.17D-01

 Cycle   3  Pass 1  IDiag  1:
 RMSU=  8.56D-03    CP:  1.39D+00  2.42D+00
 E= -872.312169725804     Delta-E=       -0.059291710898 Rises=F Damp=F
 DIIS: error= 1.94D-02 at cycle   3 NSaved=   3.
 NSaved= 3 IEnMin= 3 EnMin= -872.312169725804     IErMin= 2 ErrMin= 1.22D-02
 ErrMax= 1.94D-02  0.00D+00 EMaxC= 1.00D-01 BMatC= 1.11D-01 BMatP= 1.11D-01
 IDIUse=3 WtCom= 8.06D-01 WtEn= 1.94D-01
 Coeff-Com: -0.327D+00 0.768D+00 0.558D+00
 Coeff-En:   0.000D+00 0.000D+00 0.100D+01
 Coeff:     -0.263D+00 0.619D+00 0.644D+00
 Gap=     0.108 Goal=   None    Shift=    0.000
 Gap=     0.145 Goal=   None    Shift=    0.000
 RMSDP=4.71D-03 MaxDP=2.45D-01 DE=-5.93D-02 OVMax= 1.50D-01

 Cycle   4  Pass 1  IDiag  1:
 RMSU=  2.16D-03    CP:  1.32D+00  2.96D+00  7.33D-01
 E= -872.320293204853     Delta-E=       -0.008123479049 Rises=F Damp=F
 DIIS: error= 1.77D-02 at cycle   4 NSaved=   4.
 NSaved= 4 IEnMin= 4 EnMin= -872.320293204853     IErMin= 2 ErrMin= 1.22D-02
 ErrMax= 1.77D-02  0.00D+00 EMaxC= 1.00D-01 BMatC= 7.75D-02 BMatP= 1.11D-01
 IDIUse=3 WtCom= 8.23D-01 WtEn= 1.77D-01
 Coeff-Com: -0.109D+00 0.239D+00 0.467D+00 0.404D+00
 Coeff-En:   0.000D+00 0.000D+00 0.453D+00 0.547D+00
 Coeff:     -0.901D-01 0.196D+00 0.465D+00 0.429D+00
 Gap=     0.101 Goal=   None    Shift=    0.000
 Gap=     0.158 Goal=   None    Shift=    0.000
 RMSDP=1.37D-03 MaxDP=9.57D-02 DE=-8.12D-03 OVMax= 1.24D-01

 Cycle   5  Pass 1  IDiag  1:
 RMSU=  1.07D-03    CP:  1.32D+00  2.98D+00  7.59D-01  6.43D-01
 E= -872.345675797752     Delta-E=       -0.025382592899 Rises=F Damp=F
 DIIS: error= 5.57D-03 at cycle   5 NSaved=   5.
 NSaved= 5 IEnMin= 5 EnMin= -872.345675797752     IErMin= 5 ErrMin= 5.57D-03
 ErrMax= 5.57D-03  0.00D+00 EMaxC= 1.00D-01 BMatC= 5.59D-03 BMatP= 7.75D-02
 IDIUse=3 WtCom= 9.44D-01 WtEn= 5.57D-02
 Coeff-Com:  0.220D-01-0.334D-01 0.188D+00 0.285D+00 0.538D+00
 Coeff-En:   0.000D+00 0.000D+00 0.000D+00 0.192D-01 0.981D+00
 Coeff:      0.208D-01-0.316D-01 0.178D+00 0.270D+00 0.563D+00
 Gap=     0.103 Goal=   None    Shift=    0.000
 Gap=     0.151 Goal=   None    Shift=    0.000
 RMSDP=7.32D-04 MaxDP=6.57D-02 DE=-2.54D-02 OVMax= 4.36D-02

 Cycle   6  Pass 1  IDiag  1:
 RMSU=  4.19D-04    CP:  1.33D+00  2.96D+00  7.97D-01  6.85D-01  7.84D-01
 E= -872.347532453699     Delta-E=       -0.001856655947 Rises=F Damp=F
 DIIS: error= 1.49D-03 at cycle   6 NSaved=   6.
 NSaved= 6 IEnMin= 6 EnMin= -872.347532453699     IErMin= 6 ErrMin= 1.49D-03
 ErrMax= 1.49D-03  0.00D+00 EMaxC= 1.00D-01 BMatC= 7.24D-04 BMatP= 5.59D-03
 IDIUse=3 WtCom= 9.85D-01 WtEn= 1.49D-02
 Coeff-Com:  0.215D-01-0.381D-01 0.563D-01 0.103D+00 0.328D+00 0.529D+00
 Coeff-En:   0.000D+00 0.000D+00 0.000D+00 0.000D+00 0.313D-01 0.969D+00
 Coeff:      0.212D-01-0.375D-01 0.555D-01 0.102D+00 0.324D+00 0.535D+00
 Gap=     0.103 Goal=   None    Shift=    0.000
 Gap=     0.153 Goal=   None    Shift=    0.000
 RMSDP=2.52D-04 MaxDP=2.30D-02 DE=-1.86D-03 OVMax= 1.15D-02

 Cycle   7  Pass 1  IDiag  1:
 RMSU=  1.58D-04    CP:  1.34D+00  3.00D+00  8.03D-01  7.19D-01  8.78D-01
                    CP:  1.01D+00
 E= -872.347773670599     Delta-E=       -0.000241216900 Rises=F Damp=F
 DIIS: error= 5.27D-04 at cycle   7 NSaved=   7.
 NSaved= 7 IEnMin= 7 EnMin= -872.347773670599     IErMin= 7 ErrMin= 5.27D-04
 ErrMax= 5.27D-04  0.00D+00 EMaxC= 1.00D-01 BMatC= 1.11D-04 BMatP= 7.24D-04
 IDIUse=3 WtCom= 9.95D-01 WtEn= 5.27D-03
 Coeff-Com:  0.578D-04-0.124D-02-0.370D-01-0.564D-01-0.449D-01 0.269D+00
 Coeff-Com:  0.871D+00
 Coeff-En:   0.000D+00 0.000D+00 0.000D+00 0.000D+00 0.000D+00 0.000D+00
 Coeff-En:   0.100D+01
 Coeff:      0.575D-04-0.123D-02-0.368D-01-0.561D-01-0.447D-01 0.267D+00
 Coeff:      0.871D+00
 Gap=     0.104 Goal=   None    Shift=    0.000
 Gap=     0.154 Goal=   None    Shift=    0.000
 RMSDP=2.06D-04 MaxDP=1.76D-02 DE=-2.41D-04 OVMax= 8.92D-03

 Cycle   8  Pass 1  IDiag  1:
 RMSU=  8.60D-05    CP:  1.34D+00  3.00D+00  8.07D-01  7.35D-01  9.50D-01
                    CP:  1.33D+00  1.58D+00
 E= -872.347870612189     Delta-E=       -0.000096941591 Rises=F Damp=F
 DIIS: error= 4.86D-04 at cycle   8 NSaved=   8.
 NSaved= 8 IEnMin= 8 EnMin= -872.347870612189     IErMin= 8 ErrMin= 4.86D-04
 ErrMax= 4.86D-04  0.00D+00 EMaxC= 1.00D-01 BMatC= 2.78D-05 BMatP= 1.11D-04
 IDIUse=3 WtCom= 9.95D-01 WtEn= 4.86D-03
 Coeff-Com: -0.666D-02 0.101D-01-0.208D-01-0.299D-01-0.704D-01-0.287D-01
 Coeff-Com:  0.217D+00 0.930D+00
 Coeff-En:   0.000D+00 0.000D+00 0.000D+00 0.000D+00 0.000D+00 0.000D+00
 Coeff-En:   0.000D+00 0.100D+01
 Coeff:     -0.663D-02 0.101D-01-0.207D-01-0.297D-01-0.700D-01-0.286D-01
 Coeff:      0.215D+00 0.930D+00
 Gap=     0.104 Goal=   None    Shift=    0.000
 Gap=     0.154 Goal=   None    Shift=    0.000
 RMSDP=1.62D-04 MaxDP=1.56D-02 DE=-9.69D-05 OVMax= 8.56D-03

 Cycle   9  Pass 1  IDiag  1:
 RMSU=  6.23D-05    CP:  1.34D+00  3.00D+00  8.12D-01  7.49D-01  9.73D-01
                    CP:  1.50D+00  2.03D+00  1.70D+00
 E= -872.347915630570     Delta-E=       -0.000045018381 Rises=F Damp=F
 DIIS: error= 2.68D-04 at cycle   9 NSaved=   9.
 NSaved= 9 IEnMin= 9 EnMin= -872.347915630570     IErMin= 9 ErrMin= 2.68D-04
 ErrMax= 2.68D-04  0.00D+00 EMaxC= 1.00D-01 BMatC= 9.87D-06 BMatP= 2.78D-05
 IDIUse=3 WtCom= 9.97D-01 WtEn= 2.68D-03
 Coeff-Com: -0.295D-02 0.453D-02 0.593D-02 0.115D-01 0.289D-02-0.107D+00
 Coeff-Com: -0.268D+00 0.154D+00 0.120D+01
 Coeff-En:   0.000D+00 0.000D+00 0.000D+00 0.000D+00 0.000D+00 0.000D+00
 Coeff-En:   0.000D+00 0.000D+00 0.100D+01
 Coeff:     -0.294D-02 0.452D-02 0.591D-02 0.115D-01 0.288D-02-0.107D+00
 Coeff:     -0.268D+00 0.153D+00 0.120D+01
 Gap=     0.105 Goal=   None    Shift=    0.000
 Gap=     0.155 Goal=   None    Shift=    0.000
 RMSDP=1.56D-04 MaxDP=9.34D-03 DE=-4.50D-05 OVMax= 9.24D-03

 Cycle  10  Pass 1  IDiag  1:
 RMSU=  4.34D-05    CP:  1.34D+00  3.00D+00  8.12D-01  7.69D-01  9.92D-01
                    CP:  1.61D+00  2.59D+00  2.65D+00  1.99D+00
 E= -872.347948848321     Delta-E=       -0.000033217751 Rises=F Damp=F
 DIIS: error= 1.82D-04 at cycle  10 NSaved=  10.
 NSaved=10 IEnMin=10 EnMin= -872.347948848321     IErMin=10 ErrMin= 1.82D-04
 ErrMax= 1.82D-04  0.00D+00 EMaxC= 1.00D-01 BMatC= 3.45D-06 BMatP= 9.87D-06
 IDIUse=3 WtCom= 9.98D-01 WtEn= 1.82D-03
 Coeff-Com:  0.403D-02-0.596D-02 0.766D-02 0.734D-02 0.315D-01 0.596D-01
 Coeff-Com:  0.398D-01-0.530D+00-0.534D+00 0.192D+01
 Coeff-En:   0.000D+00 0.000D+00 0.000D+00 0.000D+00 0.000D+00 0.000D+00
 Coeff-En:   0.000D+00 0.000D+00 0.000D+00 0.100D+01
 Coeff:      0.402D-02-0.595D-02 0.764D-02 0.732D-02 0.315D-01 0.595D-01
 Coeff:      0.398D-01-0.529D+00-0.533D+00 0.192D+01
 Gap=     0.105 Goal=   None    Shift=    0.000
 Gap=     0.155 Goal=   None    Shift=    0.000
 RMSDP=1.94D-04 MaxDP=1.62D-02 DE=-3.32D-05 OVMax= 1.06D-02

 Cycle  11  Pass 1  IDiag  1:
 RMSU=  8.02D-05    CP:  1.34D+00  3.00D+00  8.13D-01  7.87D-01  9.86D-01
                    CP:  1.68D+00  3.00D+00  3.00D+00  3.00D+00  2.95D+00
 E= -872.347969534597     Delta-E=       -0.000020686276 Rises=F Damp=F
 DIIS: error= 7.31D-05 at cycle  11 NSaved=  11.
 NSaved=11 IEnMin=11 EnMin= -872.347969534597     IErMin=11 ErrMin= 7.31D-05
 ErrMax= 7.31D-05  0.00D+00 EMaxC= 1.00D-01 BMatC= 8.25D-07 BMatP= 3.45D-06
 IDIUse=1 WtCom= 1.00D+00 WtEn= 0.00D+00
 Coeff-Com:  0.246D-02-0.359D-02 0.256D-03-0.173D-02 0.660D-02 0.571D-01
 Coeff-Com:  0.111D+00-0.199D+00-0.591D+00 0.510D+00 0.111D+01
 Coeff:      0.246D-02-0.359D-02 0.256D-03-0.173D-02 0.660D-02 0.571D-01
 Coeff:      0.111D+00-0.199D+00-0.591D+00 0.510D+00 0.111D+01
 Gap=     0.105 Goal=   None    Shift=    0.000
 Gap=     0.155 Goal=   None    Shift=    0.000
 RMSDP=1.04D-04 MaxDP=9.46D-03 DE=-2.07D-05 OVMax= 5.40D-03

 Cycle  12  Pass 1  IDiag  1:
 RMSU=  6.02D-05    CP:  1.34D+00  3.00D+00  8.13D-01  7.96D-01  9.76D-01
                    CP:  1.70D+00  3.00D+00  3.00D+00  3.00D+00  3.00D+00
                    CP:  1.98D+00
 E= -872.347973075214     Delta-E=       -0.000003540616 Rises=F Damp=F
 DIIS: error= 2.12D-05 at cycle  12 NSaved=  12.
 NSaved=12 IEnMin=12 EnMin= -872.347973075214     IErMin=12 ErrMin= 2.12D-05
 ErrMax= 2.12D-05  0.00D+00 EMaxC= 1.00D-01 BMatC= 8.84D-08 BMatP= 8.25D-07
 IDIUse=1 WtCom= 1.00D+00 WtEn= 0.00D+00
 Coeff-Com:  0.165D-03-0.236D-03-0.764D-03-0.875D-03-0.139D-02 0.306D-02
 Coeff-Com:  0.830D-02 0.402D-01-0.265D-01-0.190D+00 0.214D+00 0.954D+00
 Coeff:      0.165D-03-0.236D-03-0.764D-03-0.875D-03-0.139D-02 0.306D-02
 Coeff:      0.830D-02 0.402D-01-0.265D-01-0.190D+00 0.214D+00 0.954D+00
 Gap=     0.105 Goal=   None    Shift=    0.000
 Gap=     0.155 Goal=   None    Shift=    0.000
 RMSDP=2.46D-05 MaxDP=2.65D-03 DE=-3.54D-06 OVMax= 1.02D-03

 Cycle  13  Pass 1  IDiag  1:
 RMSU=  5.68D-06    CP:  1.34D+00  3.00D+00  8.13D-01  7.97D-01  9.72D-01
                    CP:  1.70D+00  3.00D+00  3.00D+00  3.00D+00  3.00D+00
                    CP:  2.17D+00  1.25D+00
 E= -872.347973224930     Delta-E=       -0.000000149716 Rises=F Damp=F
 DIIS: error= 8.12D-06 at cycle  13 NSaved=  13.
 NSaved=13 IEnMin=13 EnMin= -872.347973224930     IErMin=13 ErrMin= 8.12D-06
 ErrMax= 8.12D-06  0.00D+00 EMaxC= 1.00D-01 BMatC= 1.37D-08 BMatP= 8.84D-08
 IDIUse=1 WtCom= 1.00D+00 WtEn= 0.00D+00
 Coeff-Com: -0.161D-03 0.229D-03-0.776D-04 0.122D-04-0.540D-03-0.523D-02
 Coeff-Com: -0.124D-01 0.293D-01 0.559D-01-0.841D-01-0.724D-01 0.132D+00
 Coeff-Com:  0.958D+00
 Coeff:     -0.161D-03 0.229D-03-0.776D-04 0.122D-04-0.540D-03-0.523D-02
 Coeff:     -0.124D-01 0.293D-01 0.559D-01-0.841D-01-0.724D-01 0.132D+00
 Coeff:      0.958D+00
 Gap=     0.105 Goal=   None    Shift=    0.000
 Gap=     0.155 Goal=   None    Shift=    0.000
 RMSDP=5.25D-06 MaxDP=4.71D-04 DE=-1.50D-07 OVMax= 1.84D-04

 Cycle  14  Pass 1  IDiag  1:
 RMSU=  1.54D-06    CP:  1.34D+00  3.00D+00  8.13D-01  7.97D-01  9.71D-01
                    CP:  1.69D+00  3.00D+00  3.00D+00  3.00D+00  3.00D+00
                    CP:  2.20D+00  1.31D+00  1.23D+00
 E= -872.347973238086     Delta-E=       -0.000000013156 Rises=F Damp=F
 DIIS: error= 3.30D-06 at cycle  14 NSaved=  14.
 NSaved=14 IEnMin=14 EnMin= -872.347973238086     IErMin=14 ErrMin= 3.30D-06
 ErrMax= 3.30D-06  0.00D+00 EMaxC= 1.00D-01 BMatC= 1.65D-09 BMatP= 1.37D-08
 IDIUse=1 WtCom= 1.00D+00 WtEn= 0.00D+00
 Coeff-Com: -0.296D-04 0.381D-04 0.126D-03 0.137D-03 0.260D-04-0.983D-03
 Coeff-Com: -0.262D-02-0.296D-02 0.837D-02 0.221D-01-0.380D-01-0.151D+00
 Coeff-Com:  0.853D-01 0.108D+01
 Coeff:     -0.296D-04 0.381D-04 0.126D-03 0.137D-03 0.260D-04-0.983D-03
 Coeff:     -0.262D-02-0.296D-02 0.837D-02 0.221D-01-0.380D-01-0.151D+00
 Coeff:      0.853D-01 0.108D+01
 Gap=     0.105 Goal=   None    Shift=    0.000
 Gap=     0.155 Goal=   None    Shift=    0.000
 RMSDP=3.13D-06 MaxDP=2.59D-04 DE=-1.32D-08 OVMax= 5.75D-05

 Cycle  15  Pass 1  IDiag  1:
 RMSU=  5.99D-07    CP:  1.34D+00  3.00D+00  8.13D-01  7.97D-01  9.70D-01
                    CP:  1.69D+00  3.00D+00  3.00D+00  3.00D+00  3.00D+00
                    CP:  2.22D+00  1.34D+00  1.42D+00  1.49D+00
 E= -872.347973240725     Delta-E=       -0.000000002640 Rises=F Damp=F
 DIIS: error= 1.13D-06 at cycle  15 NSaved=  15.
 NSaved=15 IEnMin=15 EnMin= -872.347973240725     IErMin=15 ErrMin= 1.13D-06
 ErrMax= 1.13D-06  0.00D+00 EMaxC= 1.00D-01 BMatC= 2.42D-10 BMatP= 1.65D-09
 IDIUse=1 WtCom= 1.00D+00 WtEn= 0.00D+00
 Coeff-Com:  0.432D-04-0.636D-04 0.416D-04 0.482D-04 0.221D-03 0.929D-03
 Coeff-Com:  0.242D-02-0.654D-02-0.101D-01 0.170D-01 0.138D-01-0.240D-01
 Coeff-Com: -0.167D+00-0.194D-01 0.119D+01
 Coeff:      0.432D-04-0.636D-04 0.416D-04 0.482D-04 0.221D-03 0.929D-03
 Coeff:      0.242D-02-0.654D-02-0.101D-01 0.170D-01 0.138D-01-0.240D-01
 Coeff:     -0.167D+00-0.194D-01 0.119D+01
 Gap=     0.105 Goal=   None    Shift=    0.000
 Gap=     0.155 Goal=   None    Shift=    0.000
 RMSDP=1.81D-06 MaxDP=1.91D-04 DE=-2.64D-09 OVMax= 2.70D-05

 Cycle  16  Pass 1  IDiag  1:
 RMSU=  1.97D-07    CP:  1.34D+00  3.00D+00  8.12D-01  7.97D-01  9.69D-01
                    CP:  1.69D+00  3.00D+00  3.00D+00  3.00D+00  3.00D+00
                    CP:  2.22D+00  1.36D+00  1.51D+00  1.80D+00  1.59D+00
 E= -872.347973241170     Delta-E=       -0.000000000445 Rises=F Damp=F
 DIIS: error= 4.53D-07 at cycle  16 NSaved=  16.
 NSaved=16 IEnMin=16 EnMin= -872.347973241170     IErMin=16 ErrMin= 4.53D-07
 ErrMax= 4.53D-07  0.00D+00 EMaxC= 1.00D-01 BMatC= 5.35D-11 BMatP= 2.42D-10
 IDIUse=1 WtCom= 1.00D+00 WtEn= 0.00D+00
 Coeff-Com:  0.699D-05-0.857D-05-0.182D-04-0.255D-04 0.471D-04 0.892D-04
 Coeff-Com:  0.500D-03 0.212D-03-0.113D-02-0.296D-02 0.514D-02 0.231D-01
 Coeff-Com: -0.142D-01-0.167D+00 0.807D-01 0.108D+01
 Coeff:      0.699D-05-0.857D-05-0.182D-04-0.255D-04 0.471D-04 0.892D-04
 Coeff:      0.500D-03 0.212D-03-0.113D-02-0.296D-02 0.514D-02 0.231D-01
 Coeff:     -0.142D-01-0.167D+00 0.807D-01 0.108D+01
 Gap=     0.105 Goal=   None    Shift=    0.000
 Gap=     0.155 Goal=   None    Shift=    0.000
 RMSDP=5.83D-07 MaxDP=5.05D-05 DE=-4.45D-10 OVMax= 8.82D-06

 Cycle  17  Pass 1  IDiag  1:
 RMSU=  6.22D-08    CP:  1.34D+00  3.00D+00  8.12D-01  7.97D-01  9.69D-01
                    CP:  1.69D+00  3.00D+00  3.00D+00  3.00D+00  3.00D+00
                    CP:  2.22D+00  1.36D+00  1.54D+00  1.90D+00  1.87D+00
                    CP:  1.24D+00
 E= -872.347973241226     Delta-E=       -0.000000000055 Rises=F Damp=F
 DIIS: error= 1.55D-07 at cycle  17 NSaved=  17.
 NSaved=17 IEnMin=17 EnMin= -872.347973241226     IErMin=17 ErrMin= 1.55D-07
 ErrMax= 1.55D-07  0.00D+00 EMaxC= 1.00D-01 BMatC= 3.46D-12 BMatP= 5.35D-11
 IDIUse=1 WtCom= 1.00D+00 WtEn= 0.00D+00
 Coeff-Com: -0.325D-05 0.469D-05-0.310D-05-0.430D-05-0.297D-04-0.602D-04
 Coeff-Com: -0.232D-03 0.548D-03 0.802D-03-0.125D-02-0.130D-02 0.146D-02
 Coeff-Com:  0.156D-01 0.645D-02-0.125D+00-0.827D-01 0.119D+01
 Coeff:     -0.325D-05 0.469D-05-0.310D-05-0.430D-05-0.297D-04-0.602D-04
 Coeff:     -0.232D-03 0.548D-03 0.802D-03-0.125D-02-0.130D-02 0.146D-02
 Coeff:      0.156D-01 0.645D-02-0.125D+00-0.827D-01 0.119D+01
 Gap=     0.105 Goal=   None    Shift=    0.000
 Gap=     0.155 Goal=   None    Shift=    0.000
 RMSDP=2.02D-07 MaxDP=1.67D-05 DE=-5.53D-11 OVMax= 3.25D-06

 Cycle  18  Pass 1  IDiag  1:
 RMSU=  1.82D-08    CP:  1.34D+00  3.00D+00  8.12D-01  7.97D-01  9.69D-01
                    CP:  1.69D+00  3.00D+00  3.00D+00  3.00D+00  3.00D+00
                    CP:  2.22D+00  1.36D+00  1.55D+00  1.93D+00  1.95D+00
                    CP:  1.34D+00  1.19D+00
 E= -872.347973241224     Delta-E=        0.000000000002 Rises=F Damp=F
 DIIS: error= 5.97D-08 at cycle  18 NSaved=  18.
 NSaved=18 IEnMin=17 EnMin= -872.347973241226     IErMin=18 ErrMin= 5.97D-08
 ErrMax= 5.97D-08  0.00D+00 EMaxC= 1.00D-01 BMatC= 6.52D-13 BMatP= 3.46D-12
 IDIUse=1 WtCom= 1.00D+00 WtEn= 0.00D+00
 Coeff-Com: -0.290D-05 0.402D-05 0.233D-05 0.252D-05-0.157D-04-0.274D-04
 Coeff-Com: -0.127D-03 0.947D-04 0.327D-03 0.179D-03-0.107D-02-0.333D-02
 Coeff-Com:  0.505D-02 0.285D-01-0.250D-01-0.174D+00 0.122D+00 0.105D+01
 Coeff:     -0.290D-05 0.402D-05 0.233D-05 0.252D-05-0.157D-04-0.274D-04
 Coeff:     -0.127D-03 0.947D-04 0.327D-03 0.179D-03-0.107D-02-0.333D-02
 Coeff:      0.505D-02 0.285D-01-0.250D-01-0.174D+00 0.122D+00 0.105D+01
 Gap=     0.105 Goal=   None    Shift=    0.000
 Gap=     0.155 Goal=   None    Shift=    0.000
 RMSDP=4.83D-08 MaxDP=4.79D-06 DE= 1.82D-12 OVMax= 9.59D-07

 Cycle  19  Pass 1  IDiag  1:
 RMSU=  5.38D-09    CP:  1.34D+00  3.00D+00  8.12D-01  7.97D-01  9.69D-01
                    CP:  1.69D+00  3.00D+00  3.00D+00  3.00D+00  3.00D+00
                    CP:  2.22D+00  1.36D+00  1.55D+00  1.93D+00  1.95D+00
                    CP:  1.34D+00  1.35D+00  1.23D+00
 E= -872.347973241233     Delta-E=       -0.000000000009 Rises=F Damp=F
 DIIS: error= 1.95D-08 at cycle  19 NSaved=  19.
 NSaved=19 IEnMin=19 EnMin= -872.347973241233     IErMin=19 ErrMin= 1.95D-08
 ErrMax= 1.95D-08  0.00D+00 EMaxC= 1.00D-01 BMatC= 8.53D-14 BMatP= 6.52D-13
 IDIUse=1 WtCom= 1.00D+00 WtEn= 0.00D+00
 Coeff-Com:  0.269D-06-0.398D-06 0.757D-07 0.609D-06 0.470D-05 0.954D-05
 Coeff-Com:  0.277D-04-0.771D-04-0.105D-03 0.195D-03 0.118D-03-0.278D-03
 Coeff-Com: -0.174D-02-0.107D-02 0.122D-01 0.141D-01-0.119D+00-0.900D-01
 Coeff-Com:  0.119D+01
 Coeff:      0.269D-06-0.398D-06 0.757D-07 0.609D-06 0.470D-05 0.954D-05
 Coeff:      0.277D-04-0.771D-04-0.105D-03 0.195D-03 0.118D-03-0.278D-03
 Coeff:     -0.174D-02-0.107D-02 0.122D-01 0.141D-01-0.119D+00-0.900D-01
 Coeff:      0.119D+01
 Gap=     0.105 Goal=   None    Shift=    0.000
 Gap=     0.155 Goal=   None    Shift=    0.000
 RMSDP=1.35D-08 MaxDP=1.44D-06 DE=-8.87D-12 OVMax= 2.80D-07

 Cycle  20  Pass 1  IDiag  1:
 RMSU=  1.61D-09    CP:  1.34D+00  3.00D+00  8.12D-01  7.97D-01  9.69D-01
                    CP:  1.69D+00  3.00D+00  3.00D+00  3.00D+00  3.00D+00
                    CP:  2.22D+00  1.36D+00  1.55D+00  1.93D+00  1.95D+00
                    CP:  1.34D+00  1.36D+00  1.34D+00  1.33D+00
 E= -872.347973241233     Delta-E=       -0.000000000000 Rises=F Damp=F
 DIIS: error= 3.86D-09 at cycle  20 NSaved=  20.
 NSaved=20 IEnMin=20 EnMin= -872.347973241233     IErMin=20 ErrMin= 3.86D-09
 ErrMax= 3.86D-09  0.00D+00 EMaxC= 1.00D-01 BMatC= 4.62D-15 BMatP= 8.53D-14
 IDIUse=1 WtCom= 1.00D+00 WtEn= 0.00D+00
 Coeff-Com:  0.141D-06-0.192D-06-0.169D-06-0.991D-08 0.110D-05 0.217D-05
 Coeff-Com:  0.990D-05-0.129D-04-0.208D-04 0.842D-06 0.655D-04 0.193D-03
 Coeff-Com: -0.479D-03-0.193D-02 0.294D-02 0.110D-01-0.149D-01-0.867D-01
 Coeff-Com:  0.144D+00 0.946D+00
 Coeff:      0.141D-06-0.192D-06-0.169D-06-0.991D-08 0.110D-05 0.217D-05
 Coeff:      0.990D-05-0.129D-04-0.208D-04 0.842D-06 0.655D-04 0.193D-03
 Coeff:     -0.479D-03-0.193D-02 0.294D-02 0.110D-01-0.149D-01-0.867D-01
 Coeff:      0.144D+00 0.946D+00
 Gap=     0.105 Goal=   None    Shift=    0.000
 Gap=     0.155 Goal=   None    Shift=    0.000
 RMSDP=2.62D-09 MaxDP=2.80D-07 DE=-4.55D-13 OVMax= 3.80D-08

 SCF Done:  E(UB3LYP) =  -872.347973241     A.U. after   20 cycles
            NFock= 20  Conv=0.26D-08     -V/T= 2.0017
 <Sx>= 0.0000 <Sy>= 0.0000 <Sz>= 0.5000 <S**2>= 0.7963 S= 0.5229
 <L.S>= 0.000000000000E+00
 KE= 8.708892209185D+02 PE=-2.362382085889D+03 EE= 4.626076660781D+02
 Annihilation of the first spin contaminant:
 S**2 before annihilation     0.7963,   after     0.7515
 Leave Link  502 at Wed Aug  3 20:08:42 2016, MaxMem=    33554432 cpu:       358.3
 (Enter /home/proyectos/fulerenos/M3C-v2.0/M3C-deps_CCC/g09-AM64L-G09RevC.01/l801.exe)
 DoSCS=F DFT=T ScalE2(SS,OS)=  1.000000  1.000000
 Range of M.O.s used for correlation:     1   182
 NBasis=   182 NAE=    22 NBE=    21 NFC=     0 NFV=     0
 NROrb=    182 NOA=    22 NOB=    21 NVA=   160 NVB=   161

 **** Warning!!: The largest alpha MO coefficient is  0.23072483D+03


 **** Warning!!: The largest beta MO coefficient is  0.22301101D+03

 Leave Link  801 at Wed Aug  3 20:08:42 2016, MaxMem=    33554432 cpu:         0.1
 (Enter /home/proyectos/fulerenos/M3C-v2.0/M3C-deps_CCC/g09-AM64L-G09RevC.01/l1101.exe)
 Using compressed storage, NAtomX=     5.
 Will process      6 centers per pass.
 Leave Link 1101 at Wed Aug  3 20:08:42 2016, MaxMem=    33554432 cpu:         1.1
 (Enter /home/proyectos/fulerenos/M3C-v2.0/M3C-deps_CCC/g09-AM64L-G09RevC.01/l1102.exe)
 Symmetrizing basis deriv contribution to polar:
 IMax=3 JMax=2 DiffMx= 0.00D+00
 Leave Link 1102 at Wed Aug  3 20:08:42 2016, MaxMem=    33554432 cpu:         0.1
 (Enter /home/proyectos/fulerenos/M3C-v2.0/M3C-deps_CCC/g09-AM64L-G09RevC.01/l1110.exe)
 Forming Gx(P) for the SCF density, NAtomX=     5.
 Integral derivatives from FoFJK, PRISM(SPDF).
 Do as many integral derivatives as possible in FoFJK.
 G2DrvN: MDV=      33554288.
 G2DrvN: will do     6 centers at a time, making    1 passes.
 Calling FoFCou, ICntrl=  3107 FMM=F I1Cent=   0 AccDes= 0.00D+00.
 FoFJK:  IHMeth= 1 ICntrl=    3107 DoSepK=F KAlg= 0 I1Cent=   0 FoldK=F
 IRaf=         0 NMat=   1 IRICut=       1 DoRegI=T DoRafI=F ISym2E= 0.
 FoFCou: FMM=F IPFlag=           0 FMFlag=      100000 FMFlg1=           0
         NFxFlg=           0 DoJE=F BraDBF=F KetDBF=F FulRan=T
         wScrn=  0.000000 ICntrl=    3107 IOpCl=  1 I1Cent=           0 NGrid=           0
         NMat0=    1 NMatS0=      1 NMatT0=    0 NMatD0=    1 NMtDS0=    0 NMtDT0=    0
 Symmetry not used in FoFCou.
 End of G2Drv F.D. properties file   721 does not exist.
 End of G2Drv F.D. properties file   722 does not exist.
 End of G2Drv F.D. properties file   788 does not exist.
 Leave Link 1110 at Wed Aug  3 20:09:20 2016, MaxMem=    33554432 cpu:       152.0
 (Enter /home/proyectos/fulerenos/M3C-v2.0/M3C-deps_CCC/g09-AM64L-G09RevC.01/l1002.exe)
 Minotr:  UHF open shell wavefunction.
          IDoAtm=11111
          Direct CPHF calculation.
          Differentiating once with respect to electric field.
                with respect to dipole field.
          Differentiating once with respect to nuclear coordinates.
          Requested convergence is 1.0D-08 RMS, and 1.0D-07 maximum.
          Secondary convergence is 1.0D-12 RMS, and 1.0D-12 maximum.
          NewPWx=T KeepS1=F KeepF1=F KeepIn=T MapXYZ=F SortEE=F KeepMc=T.
          MDV=      33554014 using IRadAn=       2.
 Generate precomputed XC quadrature information.
          Solving linear equations simultaneously, MaxMat=       0.
 FoFJK:  IHMeth= 1 ICntrl=       0 DoSepK=F KAlg= 0 I1Cent=   0 FoldK=F
 IRaf= 930000000 NMat=  18 IRICut=      45 DoRegI=T DoRafI=T ISym2E= 2.
 FoFCou: FMM=F IPFlag=           0 FMFlag=      100000 FMFlg1=           0
         NFxFlg=           0 DoJE=F BraDBF=F KetDBF=F FulRan=T
         wScrn=  0.000000 ICntrl=       0 IOpCl=  1 I1Cent=           0 NGrid=           0
         NMat0=   18 NMatS0=     18 NMatT0=    0 NMatD0=   18 NMtDS0=    0 NMtDT0=    0
 Integrals replicated using symmetry in FoFCou.
          There are    18 degrees of freedom in the 1st order CPHF.  IDoFFX=6 NUNeed=     3.
     16 vectors produced by pass  0 Test12= 3.83D-14 5.56D-09 XBig12= 7.69D+02 1.66D+01.
 AX will form    16 AO Fock derivatives at one time.
     15 vectors produced by pass  1 Test12= 3.83D-14 5.56D-09 XBig12= 1.69D+02 2.33D+00.
     15 vectors produced by pass  2 Test12= 3.83D-14 5.56D-09 XBig12= 6.44D+00 5.67D-01.
     15 vectors produced by pass  3 Test12= 3.83D-14 5.56D-09 XBig12= 3.33D-01 1.18D-01.
     15 vectors produced by pass  4 Test12= 3.83D-14 5.56D-09 XBig12= 4.89D-03 1.27D-02.
     15 vectors produced by pass  5 Test12= 3.83D-14 5.56D-09 XBig12= 5.15D-05 1.37D-03.
     15 vectors produced by pass  6 Test12= 3.83D-14 5.56D-09 XBig12= 3.71D-07 1.52D-04.
     14 vectors produced by pass  7 Test12= 3.83D-14 5.56D-09 XBig12= 3.75D-09 1.09D-05.
      8 vectors produced by pass  8 Test12= 3.83D-14 5.56D-09 XBig12= 2.37D-11 6.38D-07.
      4 vectors produced by pass  9 Test12= 3.83D-14 5.56D-09 XBig12= 2.89D-13 1.39D-07.
      3 vectors produced by pass 10 Test12= 3.83D-14 5.56D-09 XBig12= 8.95D-14 6.18D-08.
      2 vectors produced by pass 11 Test12= 3.83D-14 5.56D-09 XBig12= 5.73D-15 1.37D-08.
      1 vectors produced by pass 12 Test12= 3.83D-14 5.56D-09 XBig12= 6.27D-16 6.90D-09.
      1 vectors produced by pass 13 Test12= 3.83D-14 5.56D-09 XBig12= 8.03D-16 6.28D-09.
 InvSVY:  IOpt=1 It=  1 EMax= 2.66D-15
 Solved reduced A of dimension   139 with    18 vectors.
 FullF1:  Do perturbations    1 to     3.
 Isotropic polarizability for W=    0.000000       58.43 Bohr**3.
 End of Minotr F.D. properties file   721 does not exist.
 End of Minotr F.D. properties file   722 does not exist.
 End of Minotr F.D. properties file   788 does not exist.
 Leave Link 1002 at Wed Aug  3 20:11:49 2016, MaxMem=    33554432 cpu:       593.2
 (Enter /home/proyectos/fulerenos/M3C-v2.0/M3C-deps_CCC/g09-AM64L-G09RevC.01/l601.exe)
 Copying SCF densities to generalized density rwf, IOpCl= 1 IROHF=0.

 **********************************************************************

            Population analysis using the SCF density.

 **********************************************************************

 Orbital symmetries:
 Alpha Orbitals:
       Occupied  (A) (A) (A) (A) (A) (A) (A) (A) (A) (A) (A) (A)
                 (A) (A) (A) (A) (A) (A) (A) (A) (A) (A)
       Virtual   (A) (A) (A) (A) (A) (A) (A) (A) (A) (A) (A) (A)
                 (A) (A) (A) (A) (A) (A) (A) (A) (A) (A) (A) (A)
                 (A) (A) (A) (A) (A) (A) (A) (A) (A) (A) (A) (A)
                 (A) (A) (A) (A) (A) (A) (A) (A) (A) (A) (A) (A)
                 (A) (A) (A) (A) (A) (A) (A) (A) (A) (A) (A) (A)
                 (A) (A) (A) (A) (A) (A) (A) (A) (A) (A) (A) (A)
                 (A) (A) (A) (A) (A) (A) (A) (A) (A) (A) (A) (A)
                 (A) (A) (A) (A) (A) (A) (A) (A) (A) (A) (A) (A)
                 (A) (A) (A) (A) (A) (A) (A) (A) (A) (A) (A) (A)
                 (A) (A) (A) (A) (A) (A) (A) (A) (A) (A) (A) (A)
                 (A) (A) (A) (A) (A) (A) (A) (A) (A) (A) (A) (A)
                 (A) (A) (A) (A) (A) (A) (A) (A) (A) (A) (A) (A)
                 (A) (A) (A) (A) (A) (A) (A) (A) (A) (A) (A) (A)
                 (A) (A) (A) (A)
 Beta  Orbitals:
       Occupied  (A) (A) (A) (A) (A) (A) (A) (A) (A) (A) (A) (A)
                 (A) (A) (A) (A) (A) (A) (A) (A) (A)
       Virtual   (A) (A) (A) (A) (A) (A) (A) (A) (A) (A) (A) (A)
                 (A) (A) (A) (A) (A) (A) (A) (A) (A) (A) (A) (A)
                 (A) (A) (A) (A) (A) (A) (A) (A) (A) (A) (A) (A)
                 (A) (A) (A) (A) (A) (A) (A) (A) (A) (A) (A) (A)
                 (A) (A) (A) (A) (A) (A) (A) (A) (A) (A) (A) (A)
                 (A) (A) (A) (A) (A) (A) (A) (A) (A) (A) (A) (A)
                 (A) (A) (A) (A) (A) (A) (A) (A) (A) (A) (A) (A)
                 (A) (A) (A) (A) (A) (A) (A) (A) (A) (A) (A) (A)
                 (A) (A) (A) (A) (A) (A) (A) (A) (A) (A) (A) (A)
                 (A) (A) (A) (A) (A) (A) (A) (A) (A) (A) (A) (A)
                 (A) (A) (A) (A) (A) (A) (A) (A) (A) (A) (A) (A)
                 (A) (A) (A) (A) (A) (A) (A) (A) (A) (A) (A) (A)
                 (A) (A) (A) (A) (A) (A) (A) (A) (A) (A) (A) (A)
                 (A) (A) (A) (A) (A)
 The electronic state is 2-A.
 Alpha  occ. eigenvalues --  -89.40617 -89.40320 -10.75699 -10.73101  -8.48611
 Alpha  occ. eigenvalues --   -8.48182  -6.44769  -6.44515  -6.44488  -6.44394
 Alpha  occ. eigenvalues --   -6.44287  -6.44021  -1.34288  -1.30150  -1.19329
 Alpha  occ. eigenvalues --   -0.99203  -0.92615  -0.89385  -0.85929  -0.83323
 Alpha  occ. eigenvalues --   -0.78216  -0.72875
 Alpha virt. eigenvalues --   -0.62392  -0.49115  -0.45033  -0.40663  -0.38799
 Alpha virt. eigenvalues --   -0.33161  -0.31904  -0.27618  -0.25142  -0.24887
 Alpha virt. eigenvalues --   -0.24126  -0.22489  -0.21442  -0.20961  -0.20327
 Alpha virt. eigenvalues --   -0.19833  -0.19596  -0.19538  -0.17963  -0.14936
 Alpha virt. eigenvalues --   -0.12244  -0.12195  -0.11134  -0.10428  -0.09699
 Alpha virt. eigenvalues --   -0.08661  -0.07737  -0.05972  -0.04916  -0.04752
 Alpha virt. eigenvalues --   -0.02833  -0.01710  -0.01336  -0.00792  -0.00782
 Alpha virt. eigenvalues --   -0.00123   0.04405   0.05533   0.06105   0.08343
 Alpha virt. eigenvalues --    0.10800   0.11937   0.17296   0.18218   0.18493
 Alpha virt. eigenvalues --    0.18627   0.21762   0.24488   0.32170   0.35085
 Alpha virt. eigenvalues --    0.35271   0.35514   0.38061   0.40944   0.41663
 Alpha virt. eigenvalues --    0.45966   0.47856   0.48576   0.50506   0.51417
 Alpha virt. eigenvalues --    0.51657   0.51724   0.55398   0.59367   0.59589
 Alpha virt. eigenvalues --    0.60579   0.66447   0.73140   0.76204   0.77304
 Alpha virt. eigenvalues --    0.80521   0.89878   0.94460   0.97263   0.97677
 Alpha virt. eigenvalues --    0.97681   0.99188   1.05443   1.13746   1.13747
 Alpha virt. eigenvalues --    1.16937   1.19208   1.19215   1.23201   1.26395
 Alpha virt. eigenvalues --    1.26652   1.34386   1.34659   1.37377   1.42568
 Alpha virt. eigenvalues --    1.43575   1.59341   1.59686   1.66035   1.67026
 Alpha virt. eigenvalues --    1.70078   1.74696   1.81745   1.89306   1.90725
 Alpha virt. eigenvalues --    2.04239   2.12516   2.16826   2.16992   2.17591
 Alpha virt. eigenvalues --    2.28820   2.29232   2.30111   2.33015   2.35019
 Alpha virt. eigenvalues --    2.39833   2.40197   2.40278   2.50384   2.51727
 Alpha virt. eigenvalues --    2.57852   3.06300   3.07917   3.21604   3.21740
 Alpha virt. eigenvalues --    3.22062   3.34879   3.48007   3.58075   3.99258
 Alpha virt. eigenvalues --    4.06475   4.11058   4.11469   4.13632   4.20240
 Alpha virt. eigenvalues --    4.34464   4.45982   4.48838   4.60558   4.93200
 Alpha virt. eigenvalues --    4.97363   5.02564   5.41072   6.41183   6.42020
 Alpha virt. eigenvalues --    6.55308   6.55965   6.74057   6.75513   6.88800
 Alpha virt. eigenvalues --    7.02956   7.04431   7.51633   8.25748   8.41545
 Alpha virt. eigenvalues --   16.92786  17.00170  17.12018  17.17506  17.51484
 Alpha virt. eigenvalues --   17.79665  23.52187  25.44123 189.08285 189.28168
  Beta  occ. eigenvalues --  -89.40693 -89.39867 -10.74680 -10.73476  -8.48672
  Beta  occ. eigenvalues --   -8.47771  -6.44843  -6.44760  -6.44389  -6.43836
  Beta  occ. eigenvalues --   -6.43774  -6.43272  -1.33168  -1.29365  -1.17795
  Beta  occ. eigenvalues --   -0.98126  -0.91250  -0.87264  -0.85550  -0.80984
  Beta  occ. eigenvalues --   -0.77993
  Beta virt. eigenvalues --   -0.62467  -0.61682  -0.46759  -0.44637  -0.39781
  Beta virt. eigenvalues --   -0.37861  -0.32465  -0.31623  -0.27586  -0.24920
  Beta virt. eigenvalues --   -0.24871  -0.24100  -0.22029  -0.20288  -0.19852
  Beta virt. eigenvalues --   -0.19848  -0.19571  -0.19237  -0.18639  -0.17870
  Beta virt. eigenvalues --   -0.14760  -0.12145  -0.11901  -0.11160  -0.10128
  Beta virt. eigenvalues --   -0.09323  -0.08566  -0.07555  -0.05250  -0.04587
  Beta virt. eigenvalues --   -0.03917  -0.02418  -0.01357  -0.00801  -0.00630
  Beta virt. eigenvalues --   -0.00481  -0.00090   0.04873   0.05660   0.06446
  Beta virt. eigenvalues --    0.08557   0.11007   0.12545   0.17736   0.18615
  Beta virt. eigenvalues --    0.18655   0.19438   0.22065   0.24817   0.32731
  Beta virt. eigenvalues --    0.35159   0.35853   0.36144   0.38212   0.41341
  Beta virt. eigenvalues --    0.42350   0.46435   0.47930   0.49287   0.50773
  Beta virt. eigenvalues --    0.51237   0.53964   0.54002   0.55410   0.59642
  Beta virt. eigenvalues --    0.60095   0.61507   0.66616   0.73312   0.76684
  Beta virt. eigenvalues --    0.78158   0.80879   0.90633   0.95502   0.97431
  Beta virt. eigenvalues --    0.98203   0.98834   1.00174   1.06142   1.17007
  Beta virt. eigenvalues --    1.17023   1.17843   1.20108   1.20339   1.23878
  Beta virt. eigenvalues --    1.26600   1.27555   1.34482   1.35739   1.38493
  Beta virt. eigenvalues --    1.42757   1.44661   1.59743   1.60871   1.67135
  Beta virt. eigenvalues --    1.67715   1.70510   1.75255   1.82130   1.89672
  Beta virt. eigenvalues --    1.91134   2.05137   2.14257   2.17675   2.18519
  Beta virt. eigenvalues --    2.18856   2.29453   2.29990   2.31157   2.33823
  Beta virt. eigenvalues --    2.35468   2.40492   2.40937   2.42293   2.51577
  Beta virt. eigenvalues --    2.53121   2.58279   3.06551   3.09093   3.22373
  Beta virt. eigenvalues --    3.22642   3.23161   3.36662   3.49642   3.59568
  Beta virt. eigenvalues --    3.99907   4.06562   4.11800   4.12526   4.13850
  Beta virt. eigenvalues --    4.20941   4.34763   4.46459   4.48942   4.60886
  Beta virt. eigenvalues --    4.94375   4.97589   5.03582   5.41459   6.43145
  Beta virt. eigenvalues --    6.43643   6.56616   6.57526   6.74231   6.77050
  Beta virt. eigenvalues --    6.89443   7.02984   7.06126   7.51997   8.26213
  Beta virt. eigenvalues --    8.41886  16.92783  17.01144  17.12307  17.18089
  Beta virt. eigenvalues --   17.51519  17.79931  23.52565  25.44531 189.08347
  Beta virt. eigenvalues --  189.28453
          Condensed to atoms (all electrons):
               1          2          3          4          5
     1  S   15.863167  -0.016027   1.419611  -1.710101  -0.002994
     2  S   -0.016027  15.978258  -1.922446   1.453014   0.261377
     3  C    1.419611  -1.922446  13.203704  -7.315720   0.024393
     4  C   -1.710101   1.453014  -7.315720  13.135560   0.013747
     5  H   -0.002994   0.261377   0.024393   0.013747   0.409600
          Atomic-Atomic Spin Densities.
               1          2          3          4          5
     1  S    0.792087   0.000562   0.116142  -0.236450  -0.000834
     2  S    0.000562  -0.077888  -0.062712   0.049784  -0.013137
     3  C    0.116142  -0.062712   0.762822  -0.989133   0.028544
     4  C   -0.236450   0.049784  -0.989133   1.700411  -0.021401
     5  H   -0.000834  -0.013137   0.028544  -0.021401   0.079839
 Mulliken charges and spin densities:
               1          2
     1  S    0.446343   0.671506
     2  S    0.245824  -0.103391
     3  C    0.590457  -0.144338
     4  C    0.423499   0.503211
     5  H    0.293876   0.073012
 Sum of Mulliken charges =   2.00000   1.00000
 Mulliken charges and spin densities with hydrogens summed into heavy atoms:
               1          2
     1  S    0.446343   0.671506
     2  S    0.539701  -0.030380
     3  C    0.590457  -0.144338
     4  C    0.423499   0.503211
 APT charges:
               1
     1  S    0.752005
     2  S    0.514075
     3  C    0.108824
     4  C    0.354571
     5  H    0.270524
 Sum of APT charges =   2.00000
 APT charges with hydrogens summed into heavy atoms:
               1
     1  S    0.752005
     2  S    0.784599
     3  C    0.108824
     4  C    0.354571
 Electronic spatial extent (au):  <R**2>=            630.6700
 Charge=              2.0000 electrons
 Dipole moment (field-independent basis, Debye):
    X=              1.2793    Y=              1.1141    Z=             -0.0004  Tot=              1.6964
 Quadrupole moment (field-independent basis, Debye-Ang):
   XX=             17.5120   YY=            -27.8458   ZZ=            -29.8453
   XY=              3.3396   XZ=             -0.0006   YZ=             -0.0004
 Traceless Quadrupole moment (field-independent basis, Debye-Ang):
   XX=             30.9050   YY=            -14.4528   ZZ=            -16.4522
   XY=              3.3396   XZ=             -0.0006   YZ=             -0.0004
 Octapole moment (field-independent basis, Debye-Ang**2):
  XXX=              5.9673  YYY=              2.9017  ZZZ=             -0.0019  XYY=              5.8412
  XXY=              8.3612  XXZ=             -0.0087  XZZ=             -0.6516  YZZ=             -0.1170
  YYZ=             -0.0014  XYZ=             -0.0014
 Hexadecapole moment (field-independent basis, Debye-Ang**3):
 XXXX=           -355.3400 YYYY=            -31.2256 ZZZZ=            -30.3053 XXXY=             25.5126
 XXXZ=             -0.0047 YYYX=              9.0139 YYYZ=             -0.0013 ZZZX=              0.0003
 ZZZY=             -0.0001 XXYY=            -97.6733 XXZZ=           -109.5883 YYZZ=            -11.1718
 XXYZ=             -0.0032 YYXZ=             -0.0017 ZZXY=              0.1108
 N-N= 1.565372256511D+02 E-N=-2.362382085955D+03  KE= 8.708892209185D+02
  Exact polarizability: 113.971   2.705  32.087  -0.001  -0.000  29.224
 Approx polarizability: 288.742   2.631  51.444   0.004   0.000  46.641
                          Isotropic Fermi Contact Couplings
        Atom                 a.u.       MegaHertz       Gauss      10(-4) cm-1
     1  S(33)              0.03275      11.24729       4.01331       3.75169
     2  S(33)              0.05818      19.98308       7.13046       6.66564
     3  C(13)             -0.04880     -54.85862     -19.57492     -18.29886
     4  C(13)              0.05528      62.14226      22.17390      20.72843
     5  H(1)               0.03791     169.46568      60.46957      56.52767
 --------------------------------------------------------
       Center         ----  Spin Dipole Couplings  ----
                      3XX-RR        3YY-RR        3ZZ-RR
 --------------------------------------------------------
     1   Atom       -1.699605      2.512502     -0.812897
     2   Atom        0.236969      0.378499     -0.615468
     3   Atom        0.180276     -0.119892     -0.060384
     4   Atom       -0.429482      0.712373     -0.282891
     5   Atom        0.008884     -0.000787     -0.008098
 --------------------------------------------------------
                        XY            XZ            YZ
 --------------------------------------------------------
     1   Atom       -0.131125     -0.000233     -0.000317
     2   Atom       -0.196477     -0.000186     -0.000033
     3   Atom        0.000513      0.000028      0.000005
     4   Atom        0.007733      0.000021     -0.000084
     5   Atom        0.004238     -0.000004     -0.000002
 --------------------------------------------------------


 ---------------------------------------------------------------------------------
              Anisotropic Spin Dipole Couplings in Principal Axis System
 ---------------------------------------------------------------------------------

       Atom             a.u.   MegaHertz   Gauss  10(-4) cm-1        Axes

              Baa    -1.7037   -69.849   -24.924   -23.299  0.9995  0.0311  0.0003
     1 S(33)  Bbb    -0.8129   -33.328   -11.892   -11.117 -0.0003  0.0001  1.0000
              Bcc     2.5166   103.177    36.816    34.416 -0.0311  0.9995 -0.0001
 
              Baa    -0.6155   -25.234    -9.004    -8.417  0.0002  0.0001  1.0000
     2 S(33)  Bbb     0.0989     4.055     1.447     1.353  0.8182  0.5750 -0.0002
              Bcc     0.5166    21.179     7.557     7.064 -0.5750  0.8182  0.0001
 
              Baa    -0.1199   -16.088    -5.741    -5.367 -0.0017  1.0000 -0.0001
     3 C(13)  Bbb    -0.0604    -8.103    -2.891    -2.703 -0.0001  0.0001  1.0000
              Bcc     0.1803    24.191     8.632     8.069  1.0000  0.0017  0.0001
 
              Baa    -0.4295   -57.639   -20.567   -19.226  1.0000 -0.0068 -0.0001
     4 C(13)  Bbb    -0.2829   -37.961   -13.546   -12.663  0.0001  0.0001  1.0000
              Bcc     0.7124    95.601    34.113    31.889  0.0068  1.0000 -0.0001
 
              Baa    -0.0081    -4.321    -1.542    -1.441  0.0002  0.0001  1.0000
     5 H(1)   Bbb    -0.0024    -1.270    -0.453    -0.424 -0.3521  0.9360 -0.0000
              Bcc     0.0105     5.591     1.995     1.865  0.9360  0.3521 -0.0002
 

 ---------------------------------------------------------------------------------

 No NMR shielding tensors so no spin-rotation constants.
 Leave Link  601 at Wed Aug  3 20:11:49 2016, MaxMem=    33554432 cpu:         1.6
 (Enter /home/proyectos/fulerenos/M3C-v2.0/M3C-deps_CCC/g09-AM64L-G09RevC.01/l701.exe)
 Compute integral second derivatives.
 ... and contract with generalized density number  0.
 Leave Link  701 at Wed Aug  3 20:11:49 2016, MaxMem=    33554432 cpu:         1.6
 (Enter /home/proyectos/fulerenos/M3C-v2.0/M3C-deps_CCC/g09-AM64L-G09RevC.01/l702.exe)
 L702 exits ... SP integral derivatives will be done elsewhere.
 Leave Link  702 at Wed Aug  3 20:11:50 2016, MaxMem=    33554432 cpu:         0.1
 (Enter /home/proyectos/fulerenos/M3C-v2.0/M3C-deps_CCC/g09-AM64L-G09RevC.01/l703.exe)
 Compute integral second derivatives, UseDBF=F ICtDFT=           0.
 Integral derivatives from FoFJK, PRISM(SPDF).
 Calling FoFJK, ICntrl=    100127 FMM=F ISym2X=0 I1Cent= 0 IOpClX= 1 NMat=1 NMatS=1 NMatT=0.
 FoFJK:  IHMeth= 1 ICntrl=  100127 DoSepK=F KAlg= 0 I1Cent=   0 FoldK=F
 IRaf=         0 NMat=   1 IRICut=       1 DoRegI=T DoRafI=F ISym2E= 0.
 FoFCou: FMM=F IPFlag=           0 FMFlag=      100000 FMFlg1=         800
         NFxFlg=           0 DoJE=F BraDBF=F KetDBF=F FulRan=T
         wScrn=  0.000000 ICntrl=  100127 IOpCl=  1 I1Cent=           0 NGrid=           0
         NMat0=    1 NMatS0=      1 NMatT0=    0 NMatD0=    1 NMtDS0=    0 NMtDT0=    0
 Symmetry not used in FoFCou.
 Leave Link  703 at Wed Aug  3 20:13:14 2016, MaxMem=    33554432 cpu:       336.2
 (Enter /home/proyectos/fulerenos/M3C-v2.0/M3C-deps_CCC/g09-AM64L-G09RevC.01/l716.exe)
 Dipole        = 5.03320215D-01 4.38316667D-01-1.63147584D-04
 Polarizability= 1.13970902D+02 2.70491881D+00 3.20871255D+01
                -9.13844221D-04-2.60651671D-04 2.92240549D+01
 Full mass-weighted force constant matrix:
 Low frequencies ---   -9.0102   -8.2150   -0.0045   -0.0030   -0.0018   38.5279
 Low frequencies ---  157.2695  177.3494  368.9160
 Diagonal vibrational polarizability:
        3.5880532       3.0851033       7.0143553
 Harmonic frequencies (cm**-1), IR intensities (KM/Mole), Raman scattering
 activities (A**4/AMU), depolarization ratios for plane and unpolarized
 incident light, reduced masses (AMU), force constants (mDyne/A),
 and normal coordinates:
                      1                      2                      3
                      A                      A                      A
 Frequencies --    157.2694               177.3262               368.9156
 Red. masses --      7.9106                 5.6419                10.0474
 Frc consts  --      0.1153                 0.1045                 0.8057
 IR Inten    --      3.9550                 8.1516                 0.7708
  Atom  AN      X      Y      Z        X      Y      Z        X      Y      Z
     1  16     0.04  -0.17  -0.00     0.00  -0.00  -0.15    -0.05  -0.11   0.00
     2  16    -0.07  -0.16  -0.00    -0.00  -0.00  -0.12     0.08   0.01  -0.00
     3   6     0.02   0.36   0.00    -0.00   0.00   0.42    -0.05   0.73  -0.00
     4   6     0.02   0.56   0.00    -0.00  -0.00   0.38    -0.00  -0.47   0.00
     5   1     0.61  -0.34   0.00    -0.00  -0.00  -0.80    -0.44   0.15   0.00
                      4                      5                      6
                      A                      A                      A
 Frequencies --    517.2762               545.0081               907.8525
 Red. masses --      9.3325                16.2867                 1.1572
 Frc consts  --      1.4713                 2.8503                 0.5619
 IR Inten    --      0.3771                 0.0706                21.8740
  Atom  AN      X      Y      Z        X      Y      Z        X      Y      Z
     1  16    -0.00   0.00   0.07    -0.47  -0.01  -0.00    -0.00   0.00  -0.00
     2  16     0.00  -0.00  -0.05     0.49  -0.04  -0.00    -0.03   0.04   0.00
     3   6    -0.00  -0.00  -0.61    -0.19  -0.07   0.00    -0.00   0.01   0.00
     4   6     0.00   0.00   0.61     0.09   0.21  -0.00     0.01  -0.08   0.00
     5   1     0.00  -0.00  -0.51     0.66  -0.11   0.00     0.97  -0.20  -0.00
                      7                      8                      9
                      A                      A                      A
 Frequencies --   1234.5897              1679.1883              2372.5721
 Red. masses --     13.0826                11.6704                 1.0411
 Frc consts  --     11.7487                19.3881                 3.4529
 IR Inten    --      1.7635                26.2880               254.1223
  Atom  AN      X      Y      Z        X      Y      Z        X      Y      Z
     1  16    -0.27  -0.01  -0.00    -0.08  -0.00  -0.00    -0.00   0.00  -0.00
     2  16    -0.19   0.01   0.00     0.07  -0.00  -0.00    -0.00  -0.03   0.00
     3   6     0.61   0.01   0.00     0.69   0.02   0.00     0.01  -0.00   0.00
     4   6     0.64  -0.03  -0.00    -0.68   0.00   0.00    -0.01   0.00   0.00
     5   1    -0.30   0.09   0.00     0.14  -0.18   0.00     0.24   0.97  -0.00

 -------------------
 - Thermochemistry -
 -------------------
 Temperature   298.150 Kelvin.  Pressure   1.00000 Atm.
 Atom     1 has atomic number 16 and mass  31.97207
 Atom     2 has atomic number 16 and mass  31.97207
 Atom     3 has atomic number  6 and mass  12.00000
 Atom     4 has atomic number  6 and mass  12.00000
 Atom     5 has atomic number  1 and mass   1.00783
 Molecular mass:    88.95197 amu.
 Principal axes and moments of inertia in atomic units:
                           1         2         3
     Eigenvalues --     7.031261165.780751172.81199
           X            0.99995   0.00951  -0.00000
           Y           -0.00951   0.99995  -0.00018
           Z            0.00000   0.00018   1.00000
 This molecule is an asymmetric top.
 Rotational symmetry number  1.
 Rotational temperatures (Kelvin)     12.31840     0.07430     0.07385
 Rotational constants (GHZ):         256.67403     1.54810     1.53882
 Zero-point vibrational energy      47611.4 (Joules/Mol)
                                   11.37939 (Kcal/Mol)
 Warning -- explicit consideration of   5 degrees of freedom as
           vibrations may cause significant error
 Vibrational temperatures:    226.28   255.13   530.79   744.24   784.14
          (Kelvin)           1306.20  1776.30  2415.97  3413.60
 
 Zero-point correction=                           0.018134 (Hartree/Particle)
 Thermal correction to Energy=                    0.023009
 Thermal correction to Enthalpy=                  0.023954
 Thermal correction to Gibbs Free Energy=        -0.010206
 Sum of electronic and zero-point Energies=           -872.329839
 Sum of electronic and thermal Energies=              -872.324964
 Sum of electronic and thermal Enthalpies=            -872.324020
 Sum of electronic and thermal Free Energies=         -872.358180
 
                     E (Thermal)             CV                S
                      KCal/Mol        Cal/Mol-Kelvin    Cal/Mol-Kelvin
 Total                   14.439             14.340             71.896
 Electronic               0.000              0.000              1.377
 Translational            0.889              2.981             39.369
 Rotational               0.889              2.981             23.779
 Vibrational             12.661              8.378              7.371
 Vibration     1          0.621              1.895              2.582
 Vibration     2          0.628              1.870              2.356
 Vibration     3          0.741              1.536              1.084
 Vibration     4          0.872              1.212              0.616
 Vibration     5          0.900              1.151              0.555
                       Q            Log10(Q)             Ln(Q)
 Total Bot       0.495054D+05          4.694652         10.809836
 Total V=0       0.108591D+14         13.035792         30.016020
 Vib (Bot)       0.213869D-07         -7.669852        -17.660487
 Vib (Bot)    1  0.128654D+01          0.109425          0.251959
 Vib (Bot)    2  0.113370D+01          0.054498          0.125487
 Vib (Bot)    3  0.493863D+00         -0.306394         -0.705497
 Vib (Bot)    4  0.312824D+00         -0.504699         -1.162113
 Vib (Bot)    5  0.289323D+00         -0.538617         -1.240211
 Vib (V=0)       0.469124D+01          0.671288          1.545697
 Vib (V=0)    1  0.188029D+01          0.274224          0.631425
 Vib (V=0)    2  0.173906D+01          0.240315          0.553346
 Vib (V=0)    3  0.120278D+01          0.080186          0.184636
 Vib (V=0)    4  0.108980D+01          0.037345          0.085990
 Vib (V=0)    5  0.107767D+01          0.032488          0.074806
 Electronic      0.200000D+01          0.301030          0.693147
 Translational   0.329753D+08          7.518189         17.311269
 Rotational      0.350983D+05          4.545286         10.465907
 
                                                              b3lyp opt
                                                             IR Spectrum
 
     2                                     1                      1                                                                  
     3                                     6                      2                 9                  5 5       3         11        
     7                                     7                      3                 0                  4 1       6         75        
     3                                     9                      5                 8                  5 7       9         77        
 
     X                                     X                      X                 X                  X X       X         XX        
     X                                     X                                        X                                                
     X                                                                                                                               
     X                                                                                                                               
     X                                                                                                                               
     X                                                                                                                               
     X                                                                                                                               
     X                                                                                                                               
     X                                                                                                                               
     X                                                                                                                               
     X                                                                                                                               
     X                                                                                                                               
     X                                                                                                                               
     X                                                                                                                               
     X                                                                                                                               
     X                                                                                                                               
     X                                                                                                                               
     X                                                                                                                               
     X                                                                                                                               
     X                                                                                                                               
 
 ***** Axes restored to original set *****
 -------------------------------------------------------------------
 Center     Atomic                   Forces (Hartrees/Bohr)
 Number     Number              X              Y              Z
 -------------------------------------------------------------------
      1       16           0.000035196   -0.000015416   -0.000039702
      2       16           0.000012305    0.000008300    0.000001256
      3        6          -0.000034169    0.000017560    0.000043071
      4        6          -0.000000231   -0.000008558   -0.000001154
      5        1          -0.000013102   -0.000001887   -0.000003472
 -------------------------------------------------------------------
 Cartesian Forces:  Max     0.000043071 RMS     0.000021397
 Z-matrix is all fixed cartesians, so copy forces.
 Force constants in Cartesian coordinates: 
                1             2             3             4             5 
      1  0.266869D+00
      2 -0.134870D+00  0.807861D-01
      3 -0.228249D+00  0.119869D+00  0.212804D+00
      4  0.129433D-01 -0.480335D-02 -0.853530D-02  0.352102D+00
      5 -0.492421D-02  0.341138D-02  0.535644D-02 -0.286457D-01  0.967287D-01
      6 -0.869645D-02  0.533552D-02  0.902975D-02 -0.807960D-01  0.137478D+00
      7 -0.225932D+00  0.108293D+00  0.183031D+00 -0.268019D-01  0.170712D-01
      8  0.106887D+00 -0.766531D-01 -0.930456D-01  0.130907D-01 -0.136014D-02
      9  0.180979D+00 -0.932182D-01 -0.179980D+00  0.233416D-01 -0.172989D-01
     10 -0.537759D-01  0.316354D-01  0.541542D-01 -0.256568D+00  0.774207D-01
     11  0.316743D-01 -0.693466D-02 -0.316132D-01  0.738024D-01 -0.499959D-01
     12  0.541656D-01 -0.315855D-01 -0.407385D-01  0.135780D+00 -0.579695D-01
     13 -0.104694D-03 -0.255105D-03 -0.401250D-03 -0.816750D-01 -0.609220D-01
     14  0.123342D-02 -0.609718D-03 -0.567061D-03 -0.534442D-01 -0.487841D-01
     15  0.180011D-02 -0.401324D-03 -0.111515D-02 -0.697901D-01 -0.675660D-01
                6             7             8             9            10 
      6  0.218147D+00
      7  0.292270D-01  0.444180D+00
      8 -0.168551D-01 -0.211520D+00  0.166587D+00
      9 -0.191226D-01 -0.355471D+00  0.177585D+00  0.364833D+00
     10  0.141112D+00 -0.189684D+00  0.910448D-01  0.149866D+00  0.490190D+00
     11 -0.575619D-01  0.890457D-01 -0.917104D-01 -0.673470D-01 -0.207703D+00
     12 -0.117390D+00  0.146936D+00 -0.675866D-01 -0.169168D+00 -0.354745D+00
     13 -0.808468D-01 -0.176193D-02  0.498111D-03  0.128382D-02  0.983927D-02
     14 -0.683965D-01 -0.288973D-02  0.313689D-02  0.278945D-03  0.760225D-02
     15 -0.906643D-01 -0.372331D-02 -0.977904D-04  0.343826D-02  0.961198D-02
               11            12            13            14            15 
     11  0.158294D+00
     12  0.165136D+00  0.345920D+00
     13  0.131808D-01  0.178629D-01  0.737024D-01
     14 -0.965318D-02 -0.799482D-02  0.474982D-01  0.559101D-01
     15 -0.861427D-02 -0.186226D-01  0.621013D-01  0.766794D-01  0.106964D+00
 Leave Link  716 at Wed Aug  3 20:13:14 2016, MaxMem=    33554432 cpu:         0.1
 (Enter /home/proyectos/fulerenos/M3C-v2.0/M3C-deps_CCC/g09-AM64L-G09RevC.01/l103.exe)

 GradGradGradGradGradGradGradGradGradGradGradGradGradGradGradGradGradGrad
 Berny optimization.
 Search for a local minimum.
 Step number   1 out of a maximum of    2
 All quantities printed in internal units (Hartrees-Bohrs-Radians)
 Second derivative matrix not updated -- analytic derivatives used.
 The second derivative matrix:
                          X1        Y1        Z1        X2        Y2
           X1           0.26687
           Y1          -0.13487   0.08079
           Z1          -0.22825   0.11987   0.21280
           X2           0.01294  -0.00480  -0.00854   0.35210
           Y2          -0.00492   0.00341   0.00536  -0.02865   0.09673
           Z2          -0.00870   0.00534   0.00903  -0.08080   0.13748
           X3          -0.22593   0.10829   0.18303  -0.02680   0.01707
           Y3           0.10689  -0.07665  -0.09305   0.01309  -0.00136
           Z3           0.18098  -0.09322  -0.17998   0.02334  -0.01730
           X4          -0.05378   0.03164   0.05415  -0.25657   0.07742
           Y4           0.03167  -0.00693  -0.03161   0.07380  -0.05000
           Z4           0.05417  -0.03159  -0.04074   0.13578  -0.05797
           X5          -0.00010  -0.00026  -0.00040  -0.08168  -0.06092
           Y5           0.00123  -0.00061  -0.00057  -0.05344  -0.04878
           Z5           0.00180  -0.00040  -0.00112  -0.06979  -0.06757
                          Z2        X3        Y3        Z3        X4
           Z2           0.21815
           X3           0.02923   0.44418
           Y3          -0.01686  -0.21152   0.16659
           Z3          -0.01912  -0.35547   0.17759   0.36483
           X4           0.14111  -0.18968   0.09104   0.14987   0.49019
           Y4          -0.05756   0.08905  -0.09171  -0.06735  -0.20770
           Z4          -0.11739   0.14694  -0.06759  -0.16917  -0.35474
           X5          -0.08085  -0.00176   0.00050   0.00128   0.00984
           Y5          -0.06840  -0.00289   0.00314   0.00028   0.00760
           Z5          -0.09066  -0.00372  -0.00010   0.00344   0.00961
                          Y4        Z4        X5        Y5        Z5
           Y4           0.15829
           Z4           0.16514   0.34592
           X5           0.01318   0.01786   0.07370
           Y5          -0.00965  -0.00799   0.04750   0.05591
           Z5          -0.00861  -0.01862   0.06210   0.07668   0.10696
 ITU=  0
     Eigenvalues ---    0.00767   0.01629   0.04961   0.08444   0.12175
     Eigenvalues ---    0.33242   0.34881   0.95184   1.35955
 Angle between quadratic step and forces=  76.24 degrees.
 Linear search not attempted -- first point.
 B after Tr=     0.000044    0.000082   -0.000106
         Rot=    1.000000    0.000031    0.000000   -0.000034 Ang=   0.01 deg.
 Variable       Old X    -DE/DX   Delta X   Delta X   Delta X     New X
                                 (Linear)    (Quad)   (Total)
    X1       -3.79436   0.00004   0.00000  -0.00015  -0.00022  -3.79458
    Y1        1.71791  -0.00002   0.00000   0.00010   0.00007   1.71799
    Z1        2.51965  -0.00004   0.00000  -0.00036  -0.00058   2.51908
    X2        2.27132   0.00001   0.00000  -0.00002   0.00011   2.27143
    Y2       -1.14974   0.00001   0.00000   0.00012   0.00021  -1.14953
    Z2       -2.39726   0.00000   0.00000  -0.00023  -0.00026  -2.39753
    X3       -1.79358  -0.00003   0.00000   0.00023   0.00023  -1.79335
    Y3        0.67036   0.00002   0.00000  -0.00025  -0.00025   0.67011
    Z3        0.74615   0.00004   0.00000   0.00043   0.00028   0.74643
    X4       -0.11000  -0.00000   0.00000   0.00033   0.00039  -0.10961
    Y4       -0.26087  -0.00001   0.00000  -0.00022  -0.00019  -0.26106
    Z4       -0.81865  -0.00000   0.00000   0.00049   0.00040  -0.81824
    X5        0.97501  -0.00001   0.00000  -0.00072  -0.00051   0.97450
    Y5       -2.48987  -0.00000   0.00000   0.00026   0.00015  -2.48972
    Z5       -4.23483  -0.00000   0.00000   0.00011   0.00015  -4.23468
         Item               Value     Threshold  Converged?
 Maximum Force            0.000043     0.000450     YES
 RMS     Force            0.000021     0.000300     YES
 Maximum Displacement     0.000575     0.001800     YES
 RMS     Displacement     0.000301     0.001200     YES
 Predicted change in Energy=-1.149590D-08
 Optimization completed.
    -- Stationary point found.
 GradGradGradGradGradGradGradGradGradGradGradGradGradGradGradGradGradGrad

 Leave Link  103 at Wed Aug  3 20:13:14 2016, MaxMem=    33554432 cpu:         0.1
 (Enter /home/proyectos/fulerenos/M3C-v2.0/M3C-deps_CCC/g09-AM64L-G09RevC.01/l9999.exe)
 1\1\GINC-DEPAZ30\Freq\UB3LYP\6-311++G(3df,2p)\C2H1S2(2+,2)\NAGUIRRE\03
 -Aug-2016\0\\#p b3lyp/6-311++G(3df,2p) freq\\b3lyp opt\\2,2\S,-2.00789
 ,0.90908,1.333343\S,1.201932,-0.608416,-1.268577\C,-0.94912,0.354737,0
 .394843\C,-0.05821,-0.138044,-0.433209\H,0.515952,-1.31758,-2.240975\\
 Version=EM64L-G09RevE.01\State=2-A\HF=-872.3479732\S2=0.79629\S2-1=0.\
 S2A=0.751501\RMSD=2.625e-09\RMSF=2.140e-05\ZeroPoint=0.0181342\Thermal
 =0.0230095\Dipole=0.0538778,-0.3699138,-0.5529138\DipoleDeriv=0.758947
 ,0.0004329,-0.0011851,-0.003117,0.7462188,0.005225,-0.0064638,0.004843
 3,0.7508493,0.7027686,0.0343111,0.0424683,0.1585257,0.5070024,-0.19672
 51,0.2261986,-0.1828877,0.3324547,0.0712752,0.0385117,0.0677176,0.0474
 031,0.1473553,-0.0349084,0.0812804,-0.0341085,0.1078425,0.4153153,-0.1
 480347,-0.2394466,-0.1724467,0.2722467,0.0796588,-0.275959,0.0771327,0
 .3761521,0.0516939,0.074779,0.1304459,-0.0303652,0.3271767,0.1467497,-
 0.0250562,0.1350203,0.4327013\Polar=71.147345,-20.7512085,41.2495384,-
 35.3597612,20.096773,62.8851988\PG=C01 [X(C2H1S2)]\NImag=0\\0.26686888
 ,-0.13487016,0.08078611,-0.22824871,0.11986944,0.21280414,0.01294330,-
 0.00480335,-0.00853530,0.35210202,-0.00492421,0.00341138,0.00535644,-0
 .02864569,0.09672874,-0.00869645,0.00533552,0.00902975,-0.08079601,0.1
 3747791,0.21814749,-0.22593155,0.10829318,0.18303108,-0.02680185,0.017
 07118,0.02922705,0.44417982,0.10688664,-0.07665311,-0.09304559,0.01309
 075,-0.00136014,-0.01685509,-0.21152029,0.16658679,0.18097943,-0.09321
 819,-0.17998024,0.02334163,-0.01729886,-0.01912261,-0.35547107,0.17758
 506,0.36483287,-0.05377593,0.03163544,0.05415419,-0.25656846,0.0774206
 9,0.14111221,-0.18968450,0.09104479,0.14986619,0.49018962,0.03167431,-
 0.00693466,-0.03161323,0.07380245,-0.04999586,-0.05756186,0.08904566,-
 0.09171043,-0.06734695,-0.20770317,0.15829412,0.05416563,-0.03158545,-
 0.04073850,0.13577980,-0.05796946,-0.11739033,0.14693626,-0.06758658,-
 0.16916827,-0.35474456,0.16513631,0.34591972,-0.00010469,-0.00025510,-
 0.00040125,-0.08167501,-0.06092197,-0.08084680,-0.00176193,0.00049811,
 0.00128382,0.00983927,0.01318076,0.01786288,0.07370236,0.00123342,-0.0
 0060972,-0.00056706,-0.05344415,-0.04878413,-0.06839648,-0.00288973,0.
 00313689,0.00027894,0.00760225,-0.00965318,-0.00799482,0.04749821,0.05
 591013,0.00180011,-0.00040132,-0.00111515,-0.06979011,-0.06756603,-0.0
 9066430,-0.00372331,-0.00009779,0.00343826,0.00961198,-0.00861427,-0.0
 1862262,0.06210135,0.07667942,0.10696381\\-0.00003520,0.00001542,0.000
 03970,-0.00001231,-0.00000830,-0.00000126,0.00003417,-0.00001756,-0.00
 004307,0.00000023,0.00000856,0.00000115,0.00001310,0.00000189,0.000003
 47\\\@


 IT'S WHAT YOU LEARN AFTER YOU KNOW IT ALL
 THAT COUNTS.
 Job cpu time:       0 days  0 hours 24 minutes 14.9 seconds.
 File lengths (MBytes):  RWF=     41 Int=      0 D2E=      0 Chk=      4 Scr=      1
 Normal termination of Gaussian 09 at Wed Aug  3 20:13:14 2016.
