 Entering Gaussian System, Link 0=/home/proyectos/fulerenos/M3C-v2.0/M3C-deps_CCC/g09-AM64L-G09RevC.01/g09
 Initial command:
 /home/proyectos/fulerenos/M3C-v2.0/M3C-deps_CCC/g09-AM64L-G09RevC.01/l1.exe "/scratch/naguirre/gaussian/Gau-20457.inp" -scrdir="/scratch/naguirre/gaussian/"
 Entering Link 1 = /home/proyectos/fulerenos/M3C-v2.0/M3C-deps_CCC/g09-AM64L-G09RevC.01/l1.exe PID=     20467.
  
 Copyright (c) 1988,1990,1992,1993,1995,1998,2003,2009,2015,
            Gaussian, Inc.  All Rights Reserved.
  
 This is part of the Gaussian(R) 09 program.  It is based on
 the Gaussian(R) 03 system (copyright 2003, Gaussian, Inc.),
 the Gaussian(R) 98 system (copyright 1998, Gaussian, Inc.),
 the Gaussian(R) 94 system (copyright 1995, Gaussian, Inc.),
 the Gaussian 92(TM) system (copyright 1992, Gaussian, Inc.),
 the Gaussian 90(TM) system (copyright 1990, Gaussian, Inc.),
 the Gaussian 88(TM) system (copyright 1988, Gaussian, Inc.),
 the Gaussian 86(TM) system (copyright 1986, Carnegie Mellon
 University), and the Gaussian 82(TM) system (copyright 1983,
 Carnegie Mellon University). Gaussian is a federally registered
 trademark of Gaussian, Inc.
  
 This software contains proprietary and confidential information,
 including trade secrets, belonging to Gaussian, Inc.
  
 This software is provided under written license and may be
 used, copied, transmitted, or stored only in accord with that
 written license.
  
 The following legend is applicable only to US Government
 contracts under FAR:
  
                    RESTRICTED RIGHTS LEGEND
  
 Use, reproduction and disclosure by the US Government is
 subject to restrictions as set forth in subparagraphs (a)
 and (c) of the Commercial Computer Software - Restricted
 Rights clause in FAR 52.227-19.
  
 Gaussian, Inc.
 340 Quinnipiac St., Bldg. 40, Wallingford CT 06492
  
  
 ---------------------------------------------------------------
 Warning -- This program may not be used in any manner that
 competes with the business of Gaussian, Inc. or will provide
 assistance to any competitor of Gaussian, Inc.  The licensee
 of this program is prohibited from giving any competitor of
 Gaussian, Inc. access to this program.  By using this program,
 the user acknowledges that Gaussian, Inc. is engaged in the
 business of creating and licensing software in the field of
 computational chemistry and represents and warrants to the
 licensee that it is not a competitor of Gaussian, Inc. and that
 it will not use this program in any manner prohibited above.
 ---------------------------------------------------------------
  

 Cite this work as:
 Gaussian 09, Revision E.01,
 M. J. Frisch, G. W. Trucks, H. B. Schlegel, G. E. Scuseria, 
 M. A. Robb, J. R. Cheeseman, G. Scalmani, V. Barone, B. Mennucci, 
 G. A. Petersson, H. Nakatsuji, M. Caricato, X. Li, H. P. Hratchian, 
 A. F. Izmaylov, J. Bloino, G. Zheng, J. L. Sonnenberg, M. Hada, 
 M. Ehara, K. Toyota, R. Fukuda, J. Hasegawa, M. Ishida, T. Nakajima, 
 Y. Honda, O. Kitao, H. Nakai, T. Vreven, J. A. Montgomery, Jr., 
 J. E. Peralta, F. Ogliaro, M. Bearpark, J. J. Heyd, E. Brothers, 
 K. N. Kudin, V. N. Staroverov, T. Keith, R. Kobayashi, J. Normand, 
 K. Raghavachari, A. Rendell, J. C. Burant, S. S. Iyengar, J. Tomasi, 
 M. Cossi, N. Rega, J. M. Millam, M. Klene, J. E. Knox, J. B. Cross, 
 V. Bakken, C. Adamo, J. Jaramillo, R. Gomperts, R. E. Stratmann, 
 O. Yazyev, A. J. Austin, R. Cammi, C. Pomelli, J. W. Ochterski, 
 R. L. Martin, K. Morokuma, V. G. Zakrzewski, G. A. Voth, 
 P. Salvador, J. J. Dannenberg, S. Dapprich, A. D. Daniels, 
 O. Farkas, J. B. Foresman, J. V. Ortiz, J. Cioslowski, 
 and D. J. Fox, Gaussian, Inc., Wallingford CT, 2013.
 
 ******************************************
 Gaussian 09:  EM64L-G09RevE.01 30-Nov-2015
                 6-Mar-2019 
 ******************************************
 %NProcShared=2
 Will use up to    2 processors via shared memory.
 ----------------------------------------------------------
 #p b3lyp/6-311++G(3df,2p) opt(MaxCycles=200) Symmetry=None
 ----------------------------------------------------------
 1/6=200,14=-1,18=20,19=15,26=3,38=1/1,3;
 2/9=110,12=2,15=3,17=6,18=5,40=1/2;
 3/5=4,6=6,7=1216,11=2,16=1,25=1,30=1,71=1,74=-5/1,2,3;
 4//1;
 5/5=2,38=5/2;
 6/7=2,8=2,9=2,10=2,28=1/1;
 7/30=1/1,2,3,16;
 1/6=200,14=-1,18=20,19=15,26=3/3(2);
 2/9=110,15=3/2;
 99//99;
 2/9=110,15=3/2;
 3/5=4,6=6,7=1216,11=2,16=1,25=1,30=1,71=1,74=-5/1,2,3;
 4/5=5,16=3,69=1/1;
 5/5=2,38=5/2;
 7/30=1/1,2,3,16;
 1/6=200,14=-1,18=20,19=15,26=3/3(-5);
 2/9=110,15=3/2;
 6/7=2,8=2,9=2,10=2,19=2,28=1/1;
 99/9=1/99;
 Leave Link    1 at Wed Mar  6 17:09:03 2019, MaxMem=           0 cpu:         0.1
 (Enter /home/proyectos/fulerenos/M3C-v2.0/M3C-deps_CCC/g09-AM64L-G09RevC.01/l101.exe)
 ---------
 b3lyp opt
 ---------
 Symbolic Z-matrix:
 Charge = -1 Multiplicity = 4
 C                     1.09563   0.27361  -0.71419 
 C                    -0.04498   0.28856  -0.23629 
 H                     2.08405   0.29367  -1.13331 
 H                    -1.69476   1.00222   0.36476 
 O                    -1.17476   0.17349   0.25523 
 
 NAtoms=      5 NQM=        5 NQMF=       0 NMMI=      0 NMMIF=      0
                NMic=       0 NMicF=      0.
                    Isotopes and Nuclear Properties:
 (Nuclear quadrupole moments (NQMom) in fm**2, nuclear magnetic moments (NMagM)
  in nuclear magnetons)

  Atom         1           2           3           4           5
 IAtWgt=          12          12           1           1          16
 AtmWgt=  12.0000000  12.0000000   1.0078250   1.0078250  15.9949146
 NucSpn=           0           0           1           1           0
 AtZEff=   0.0000000   0.0000000   0.0000000   0.0000000   0.0000000
 NQMom=    0.0000000   0.0000000   0.0000000   0.0000000   0.0000000
 NMagM=    0.0000000   0.0000000   2.7928460   2.7928460   0.0000000
 AtZNuc=   6.0000000   6.0000000   1.0000000   1.0000000   8.0000000
 Leave Link  101 at Wed Mar  6 17:09:04 2019, MaxMem=    33554432 cpu:         0.2
 (Enter /home/proyectos/fulerenos/M3C-v2.0/M3C-deps_CCC/g09-AM64L-G09RevC.01/l103.exe)

 GradGradGradGradGradGradGradGradGradGradGradGradGradGradGradGradGradGrad
 Berny optimization.
 Initialization pass.
                           ----------------------------
                           !    Initial Parameters    !
                           ! (Angstroms and Degrees)  !
 --------------------------                            --------------------------
 ! Name  Definition              Value          Derivative Info.                !
 --------------------------------------------------------------------------------
 ! R1    R(1,2)                  1.2368         estimate D2E/DX2                !
 ! R2    R(1,3)                  1.0738         estimate D2E/DX2                !
 ! R3    R(2,5)                  1.2374         estimate D2E/DX2                !
 ! R4    R(4,5)                  0.9845         estimate D2E/DX2                !
 ! A1    A(2,5,4)              116.6253         estimate D2E/DX2                !
 ! A2    L(2,1,3,4,-1)         178.2206         estimate D2E/DX2                !
 ! A3    L(1,2,5,4,-1)         186.0782         estimate D2E/DX2                !
 ! A4    L(2,1,3,4,-2)         180.1295         estimate D2E/DX2                !
 ! A5    L(1,2,5,4,-2)         180.1109         estimate D2E/DX2                !
 --------------------------------------------------------------------------------
 Trust Radius=3.00D-01 FncErr=1.00D-07 GrdErr=1.00D-06
 Number of steps in this run=    100 maximum allowed number of steps=    100.
 GradGradGradGradGradGradGradGradGradGradGradGradGradGradGradGradGradGrad

 Leave Link  103 at Wed Mar  6 17:09:04 2019, MaxMem=    33554432 cpu:         0.0
 (Enter /home/proyectos/fulerenos/M3C-v2.0/M3C-deps_CCC/g09-AM64L-G09RevC.01/l202.exe)
                          Input orientation:                          
 ---------------------------------------------------------------------
 Center     Atomic      Atomic             Coordinates (Angstroms)
 Number     Number       Type             X           Y           Z
 ---------------------------------------------------------------------
      1          6           0        1.095631    0.273613   -0.714193
      2          6           0       -0.044983    0.288562   -0.236285
      3          1           0        2.084047    0.293667   -1.133314
      4          1           0       -1.694756    1.002223    0.364761
      5          8           0       -1.174762    0.173487    0.255226
 ---------------------------------------------------------------------
                    Distance matrix (angstroms):
                    1          2          3          4          5
     1  C    0.000000
     2  C    1.236778   0.000000
     3  H    1.073793   2.310293   0.000000
     4  H    3.079168   1.895341   4.126213   0.000000
     5  O    2.470725   1.237427   3.544337   0.984477   0.000000
 Symmetry turned off by external request.
 Stoichiometry    C2H2O
 Rotational constants (GHZ):    733.3353543      9.9727267      9.8389265
 Leave Link  202 at Wed Mar  6 17:09:04 2019, MaxMem=    33554432 cpu:         0.0
 (Enter /home/proyectos/fulerenos/M3C-v2.0/M3C-deps_CCC/g09-AM64L-G09RevC.01/l301.exe)
 Standard basis: 6-311++G(3df,2p) (5D, 7F)
 Ernie: Thresh=  0.10000D-02 Tol=  0.10000D-05 Strict=F.
   137 basis functions,   198 primitive gaussians,   155 cartesian basis functions
    13 alpha electrons       10 beta electrons
       nuclear repulsion energy        58.8710407967 Hartrees.
 IExCor=  402 DFT=T Ex+Corr=B3LYP ExCW=0 ScaHFX=  0.200000
 ScaDFX=  0.800000  0.720000  1.000000  0.810000 ScalE2=  1.000000  1.000000
 IRadAn=      0 IRanWt=     -1 IRanGd=            0 ICorTp=0 IEmpDi=  4
 NAtoms=    5 NActive=    5 NUniq=    5 SFac= 1.00D+00 NAtFMM=   60 NAOKFM=F Big=F
 Integral buffers will be    131072 words long.
 Raffenetti 2 integral format.
 Two-electron integral symmetry is turned off.
 Leave Link  301 at Wed Mar  6 17:09:04 2019, MaxMem=    33554432 cpu:         0.2
 (Enter /home/proyectos/fulerenos/M3C-v2.0/M3C-deps_CCC/g09-AM64L-G09RevC.01/l302.exe)
 NPDir=0 NMtPBC=     1 NCelOv=     1 NCel=       1 NClECP=     1 NCelD=      1
         NCelK=      1 NCelE2=     1 NClLst=     1 CellRange=     0.0.
 One-electron integrals computed using PRISM.
 NBasis=   137 RedAO= T EigKep=  1.13D-05  NBF=   137
 NBsUse=   137 1.00D-06 EigRej= -1.00D+00 NBFU=   137
 Precomputing XC quadrature grid using
 IXCGrd= 4 IRadAn=           0 IRanWt=          -1 IRanGd=           0 AccXCQ= 0.00D+00.
 Generated NRdTot=       0 NPtTot=           0 NUsed=           0 NTot=          32
 NSgBfM=   155   155   155   155   155 MxSgAt=     5 MxSgA2=     5.
 Leave Link  302 at Wed Mar  6 17:09:04 2019, MaxMem=    33554432 cpu:         0.7
 (Enter /home/proyectos/fulerenos/M3C-v2.0/M3C-deps_CCC/g09-AM64L-G09RevC.01/l303.exe)
 DipDrv:  MaxL=1.
 Leave Link  303 at Wed Mar  6 17:09:04 2019, MaxMem=    33554432 cpu:         0.1
 (Enter /home/proyectos/fulerenos/M3C-v2.0/M3C-deps_CCC/g09-AM64L-G09RevC.01/l401.exe)
 ExpMin= 3.60D-02 ExpMax= 8.59D+03 ExpMxC= 1.30D+03 IAcc=3 IRadAn=         5 AccDes= 0.00D+00
 Harris functional with IExCor=  402 and IRadAn=       5 diagonalized for initial guess.
 HarFok:  IExCor=  402 AccDes= 0.00D+00 IRadAn=         5 IDoV= 1 UseB2=F ITyADJ=14
 ICtDFT=  3500011 ScaDFX=  1.000000  1.000000  1.000000  1.000000
 FoFCou: FMM=F IPFlag=           0 FMFlag=      100000 FMFlg1=           0
         NFxFlg=           0 DoJE=T BraDBF=F KetDBF=T FulRan=T
         wScrn=  0.000000 ICntrl=     500 IOpCl=  0 I1Cent=   200000004 NGrid=           0
         NMat0=    1 NMatS0=      1 NMatT0=    0 NMatD0=    1 NMtDS0=    0 NMtDT0=    0
 Symmetry not used in FoFCou.
 Harris En= -152.455394563366    
 JPrj=0 DoOrth=F DoCkMO=F.
 Initial guess <Sx>= 0.0000 <Sy>= 0.0000 <Sz>= 1.5000 <S**2>= 3.7500 S= 1.5000
 Leave Link  401 at Wed Mar  6 17:09:06 2019, MaxMem=    33554432 cpu:         3.9
 (Enter /home/proyectos/fulerenos/M3C-v2.0/M3C-deps_CCC/g09-AM64L-G09RevC.01/l502.exe)
 UHF open shell SCF:
 Using DIIS extrapolation, IDIIS=  1040.
 Two-electron integral symmetry not used.
 IVT=       92495 IEndB=       92495 NGot=    33554432 MDV=    33502758
 LenX=    33502758 LenY=    33478292
 Requested convergence on RMS density matrix=1.00D-08 within 128 cycles.
 Requested convergence on MAX density matrix=1.00D-06.
 Requested convergence on             energy=1.00D-06.
 No special actions if energy rises.
 Fock matrices will be formed incrementally for  20 cycles.

 Cycle   1  Pass 1  IDiag  1:
 FoFJK:  IHMeth= 1 ICntrl=       0 DoSepK=F KAlg= 0 I1Cent=   0 FoldK=F
 IRaf= 990000000 NMat=   1 IRICut=       1 DoRegI=T DoRafI=F ISym2E= 0.
 FoFCou: FMM=F IPFlag=           0 FMFlag=      100000 FMFlg1=           0
         NFxFlg=           0 DoJE=F BraDBF=F KetDBF=F FulRan=T
         wScrn=  0.000000 ICntrl=       0 IOpCl=  1 I1Cent=           0 NGrid=           0
         NMat0=    1 NMatS0=      1 NMatT0=    0 NMatD0=    1 NMtDS0=    0 NMtDT0=    0
 Symmetry not used in FoFCou.
 E= -152.248793355912    
 DIIS: error= 3.24D-02 at cycle   1 NSaved=   1.
 NSaved= 1 IEnMin= 1 EnMin= -152.248793355912     IErMin= 1 ErrMin= 3.24D-02
 ErrMax= 3.24D-02  0.00D+00 EMaxC= 1.00D-01 BMatC= 4.74D-01 BMatP= 4.74D-01
 IDIUse=3 WtCom= 6.76D-01 WtEn= 3.24D-01
 Coeff-Com:  0.100D+01
 Coeff-En:   0.100D+01
 Coeff:      0.100D+01
 Gap=     0.215 Goal=   None    Shift=    0.000
 Gap=     0.078 Goal=   None    Shift=    0.000
 GapD=    0.078 DampG=0.500 DampE=0.500 DampFc=0.2500 IDamp=-1.
 Damping current iteration by 2.50D-01
 RMSDP=9.37D+00 MaxDP=9.81D+02              OVMax= 9.90D-01

 Cycle   2  Pass 1  IDiag  1:
 RMSU=  2.26D+00    CP:  3.00D+00
 E= -152.311814674825     Delta-E=       -0.063021318913 Rises=F Damp=T
 DIIS: error= 1.23D-02 at cycle   2 NSaved=   2.
 NSaved= 2 IEnMin= 2 EnMin= -152.311814674825     IErMin= 2 ErrMin= 1.23D-02
 ErrMax= 1.23D-02  0.00D+00 EMaxC= 1.00D-01 BMatC= 8.76D-02 BMatP= 4.74D-01
 IDIUse=3 WtCom= 8.77D-01 WtEn= 1.23D-01
 Coeff-Com: -0.584D+00 0.158D+01
 Coeff-En:   0.000D+00 0.100D+01
 Coeff:     -0.512D+00 0.151D+01
 Gap=     0.059 Goal=   None    Shift=    0.000
 Gap=     0.225 Goal=   None    Shift=    0.000
 RMSDP=3.29D+00 MaxDP=3.47D+02 DE=-6.30D-02 OVMax= 2.89D-01

 Cycle   3  Pass 1  IDiag  1:
 RMSU=  4.10D-01    CP:  3.00D+00  2.45D+00
 E= -152.390408764658     Delta-E=       -0.078594089833 Rises=F Damp=F
 DIIS: error= 1.04D-02 at cycle   3 NSaved=   3.
 NSaved= 3 IEnMin= 3 EnMin= -152.390408764658     IErMin= 3 ErrMin= 1.04D-02
 ErrMax= 1.04D-02  0.00D+00 EMaxC= 1.00D-01 BMatC= 2.79D-02 BMatP= 8.76D-02
 IDIUse=3 WtCom= 8.96D-01 WtEn= 1.04D-01
 Coeff-Com:  0.870D-01 0.172D+00 0.741D+00
 Coeff-En:   0.348D-01 0.000D+00 0.965D+00
 Coeff:      0.816D-01 0.154D+00 0.764D+00
 Gap=     0.017 Goal=   None    Shift=    0.000
 Gap=     0.098 Goal=   None    Shift=    0.000
 RMSDP=2.41D+00 MaxDP=2.60D+02 DE=-7.86D-02 OVMax= 3.86D-01

 Cycle   4  Pass 1  IDiag  1:
 RMSU=  1.49D-01    CP:  3.00D+00  1.39D+00  2.70D-02
 E= -152.400871086525     Delta-E=       -0.010462321867 Rises=F Damp=F
 DIIS: error= 4.53D-03 at cycle   4 NSaved=   4.
 NSaved= 4 IEnMin= 4 EnMin= -152.400871086525     IErMin= 4 ErrMin= 4.53D-03
 ErrMax= 4.53D-03  0.00D+00 EMaxC= 1.00D-01 BMatC= 7.18D-03 BMatP= 2.79D-02
 IDIUse=3 WtCom= 9.55D-01 WtEn= 4.53D-02
 Coeff-Com: -0.126D-01 0.248D-01 0.317D+00 0.671D+00
 Coeff-En:   0.000D+00 0.000D+00 0.177D+00 0.823D+00
 Coeff:     -0.120D-01 0.237D-01 0.310D+00 0.678D+00
 Gap=     0.036 Goal=   None    Shift=    0.000
 Gap=     0.099 Goal=   None    Shift=    0.000
 RMSDP=4.07D-01 MaxDP=4.34D+01 DE=-1.05D-02 OVMax= 1.37D-01

 Cycle   5  Pass 1  IDiag  1:
 RMSU=  3.49D-02    CP:  3.00D+00  1.57D+00  1.05D-01  9.70D-01
 E= -152.404203880847     Delta-E=       -0.003332794322 Rises=F Damp=F
 DIIS: error= 7.79D-04 at cycle   5 NSaved=   5.
 NSaved= 5 IEnMin= 5 EnMin= -152.404203880847     IErMin= 5 ErrMin= 7.79D-04
 ErrMax= 7.79D-04  0.00D+00 EMaxC= 1.00D-01 BMatC= 3.00D-04 BMatP= 7.18D-03
 IDIUse=3 WtCom= 9.92D-01 WtEn= 7.79D-03
 Coeff-Com: -0.513D-03-0.129D-01-0.665D-02 0.157D+00 0.863D+00
 Coeff-En:   0.000D+00 0.000D+00 0.000D+00 0.000D+00 0.100D+01
 Coeff:     -0.509D-03-0.128D-01-0.659D-02 0.156D+00 0.864D+00
 Gap=     0.040 Goal=   None    Shift=    0.000
 Gap=     0.101 Goal=   None    Shift=    0.000
 RMSDP=1.91D-01 MaxDP=2.03D+01 DE=-3.33D-03 OVMax= 2.11D-02

 Cycle   6  Pass 1  IDiag  1:
 RMSU=  5.07D-03    CP:  3.00D+00  1.49D+00  5.20D-02  1.00D+00  1.36D+00
 E= -152.404301234828     Delta-E=       -0.000097353981 Rises=F Damp=F
 DIIS: error= 8.50D-04 at cycle   6 NSaved=   6.
 NSaved= 6 IEnMin= 6 EnMin= -152.404301234828     IErMin= 5 ErrMin= 7.79D-04
 ErrMax= 8.50D-04  0.00D+00 EMaxC= 1.00D-01 BMatC= 3.13D-04 BMatP= 3.00D-04
 IDIUse=3 WtCom= 9.92D-01 WtEn= 7.79D-03
 Coeff-Com:  0.111D-01-0.235D-01-0.579D-01-0.754D-03 0.628D+00 0.443D+00
 Coeff-En:   0.000D+00 0.000D+00 0.000D+00 0.000D+00 0.000D+00 0.100D+01
 Coeff:      0.110D-01-0.234D-01-0.575D-01-0.748D-03 0.623D+00 0.448D+00
 Gap=     0.041 Goal=   None    Shift=    0.000
 Gap=     0.101 Goal=   None    Shift=    0.000
 RMSDP=5.77D-02 MaxDP=6.24D+00 DE=-9.74D-05 OVMax= 7.25D-03

 Cycle   7  Pass 1  IDiag  1:
 RMSU=  1.58D-03    CP:  3.00D+00  1.46D+00  1.82D-02  1.03D+00  1.45D+00
                    CP:  1.28D+00
 E= -152.404386620974     Delta-E=       -0.000085386146 Rises=F Damp=F
 DIIS: error= 2.96D-04 at cycle   7 NSaved=   7.
 NSaved= 7 IEnMin= 7 EnMin= -152.404386620974     IErMin= 7 ErrMin= 2.96D-04
 ErrMax= 2.96D-04  0.00D+00 EMaxC= 1.00D-01 BMatC= 4.59D-05 BMatP= 3.00D-04
 IDIUse=3 WtCom= 9.97D-01 WtEn= 2.96D-03
 Coeff-Com:  0.154D-01-0.244D-01-0.316D-01-0.352D-01 0.890D-01 0.237D+00
 Coeff-Com:  0.750D+00
 Coeff-En:   0.000D+00 0.000D+00 0.000D+00 0.000D+00 0.000D+00 0.000D+00
 Coeff-En:   0.100D+01
 Coeff:      0.153D-01-0.243D-01-0.315D-01-0.351D-01 0.887D-01 0.236D+00
 Coeff:      0.751D+00
 Gap=     0.041 Goal=   None    Shift=    0.000
 Gap=     0.102 Goal=   None    Shift=    0.000
 RMSDP=6.56D-02 MaxDP=7.02D+00 DE=-8.54D-05 OVMax= 6.74D-03

 Cycle   8  Pass 1  IDiag  1:
 RMSU=  7.97D-04    CP:  3.00D+00  1.44D+00 -6.17D-03  1.04D+00  1.54D+00
                    CP:  1.68D+00  1.56D+00
 E= -152.404409407627     Delta-E=       -0.000022786654 Rises=F Damp=F
 DIIS: error= 1.04D-04 at cycle   8 NSaved=   8.
 NSaved= 8 IEnMin= 8 EnMin= -152.404409407627     IErMin= 8 ErrMin= 1.04D-04
 ErrMax= 1.04D-04  0.00D+00 EMaxC= 1.00D-01 BMatC= 4.31D-06 BMatP= 4.59D-05
 IDIUse=3 WtCom= 9.99D-01 WtEn= 1.04D-03
 Coeff-Com: -0.639D-03 0.255D-02-0.950D-02 0.175D-03-0.233D-01 0.198D-01
 Coeff-Com:  0.179D+00 0.832D+00
 Coeff-En:   0.000D+00 0.000D+00 0.000D+00 0.000D+00 0.000D+00 0.000D+00
 Coeff-En:   0.000D+00 0.100D+01
 Coeff:     -0.638D-03 0.255D-02-0.949D-02 0.175D-03-0.233D-01 0.198D-01
 Coeff:      0.179D+00 0.832D+00
 Gap=     0.040 Goal=   None    Shift=    0.000
 Gap=     0.101 Goal=   None    Shift=    0.000
 RMSDP=6.11D-03 MaxDP=5.60D-01 DE=-2.28D-05 OVMax= 7.51D-03

 Cycle   9  Pass 1  IDiag  1:
 RMSU=  6.43D-04    CP:  3.00D+00  1.44D+00  1.81D-04  1.03D+00  1.59D+00
                    CP:  1.90D+00  1.79D+00  1.94D+00
 E= -152.404411409594     Delta-E=       -0.000002001967 Rises=F Damp=F
 DIIS: error= 1.45D-04 at cycle   9 NSaved=   9.
 NSaved= 9 IEnMin= 9 EnMin= -152.404411409594     IErMin= 8 ErrMin= 1.04D-04
 ErrMax= 1.45D-04  0.00D+00 EMaxC= 1.00D-01 BMatC= 7.99D-06 BMatP= 4.31D-06
 IDIUse=3 WtCom= 9.99D-01 WtEn= 1.04D-03
 Coeff-Com: -0.374D-03 0.518D-03 0.148D-02 0.102D-01-0.149D-01-0.753D-01
 Coeff-Com: -0.200D+00 0.547D+00 0.731D+00
 Coeff-En:   0.000D+00 0.000D+00 0.000D+00 0.000D+00 0.000D+00 0.000D+00
 Coeff-En:   0.000D+00 0.000D+00 0.100D+01
 Coeff:     -0.373D-03 0.517D-03 0.148D-02 0.102D-01-0.148D-01-0.752D-01
 Coeff:     -0.199D+00 0.547D+00 0.731D+00
 Gap=     0.040 Goal=   None    Shift=    0.000
 Gap=     0.102 Goal=   None    Shift=    0.000
 RMSDP=1.30D-02 MaxDP=1.38D+00 DE=-2.00D-06 OVMax= 2.87D-03

 Cycle  10  Pass 1  IDiag  1:
 RMSU=  2.67D-04    CP:  3.00D+00  1.43D+00 -4.24D-03  1.04D+00  1.62D+00
                    CP:  2.05D+00  2.11D+00  2.88D+00  1.45D+00
 E= -152.404415480413     Delta-E=       -0.000004070818 Rises=F Damp=F
 DIIS: error= 5.02D-05 at cycle  10 NSaved=  10.
 NSaved=10 IEnMin=10 EnMin= -152.404415480413     IErMin=10 ErrMin= 5.02D-05
 ErrMax= 5.02D-05  0.00D+00 EMaxC= 1.00D-01 BMatC= 1.10D-06 BMatP= 4.31D-06
 IDIUse=1 WtCom= 1.00D+00 WtEn= 0.00D+00
 Coeff-Com:  0.531D-03-0.137D-02 0.226D-02 0.451D-02 0.149D-01-0.401D-01
 Coeff-Com: -0.167D+00-0.446D-01-0.114D-01 0.124D+01
 Coeff:      0.531D-03-0.137D-02 0.226D-02 0.451D-02 0.149D-01-0.401D-01
 Coeff:     -0.167D+00-0.446D-01-0.114D-01 0.124D+01
 Gap=     0.040 Goal=   None    Shift=    0.000
 Gap=     0.102 Goal=   None    Shift=    0.000
 RMSDP=4.95D-03 MaxDP=4.93D-01 DE=-4.07D-06 OVMax= 2.95D-03

 Cycle  11  Pass 1  IDiag  1:
 RMSU=  7.04D-04    CP:  3.00D+00  1.43D+00 -5.83D-03  1.03D+00  1.65D+00
                    CP:  2.13D+00  2.34D+00  3.00D+00  1.84D+00  2.20D+00
 E= -152.404416476475     Delta-E=       -0.000000996062 Rises=F Damp=F
 DIIS: error= 6.25D-06 at cycle  11 NSaved=  11.
 NSaved=11 IEnMin=11 EnMin= -152.404416476475     IErMin=11 ErrMin= 6.25D-06
 ErrMax= 6.25D-06  0.00D+00 EMaxC= 1.00D-01 BMatC= 2.34D-08 BMatP= 1.10D-06
 IDIUse=1 WtCom= 1.00D+00 WtEn= 0.00D+00
 Coeff-Com:  0.247D-04-0.181D-04-0.602D-03-0.174D-02 0.786D-02 0.123D-01
 Coeff-Com:  0.332D-01-0.960D-01-0.124D+00 0.800D-01 0.109D+01
 Coeff:      0.247D-04-0.181D-04-0.602D-03-0.174D-02 0.786D-02 0.123D-01
 Coeff:      0.332D-01-0.960D-01-0.124D+00 0.800D-01 0.109D+01
 Gap=     0.040 Goal=   None    Shift=    0.000
 Gap=     0.102 Goal=   None    Shift=    0.000
 RMSDP=3.91D-03 MaxDP=4.29D-01 DE=-9.96D-07 OVMax= 9.38D-04

 Cycle  12  Pass 1  IDiag  1:
 RMSU=  4.44D-05    CP:  3.00D+00  1.43D+00 -4.08D-03  1.03D+00  1.65D+00
                    CP:  2.12D+00  2.35D+00  3.00D+00  1.97D+00  2.77D+00
                    CP:  1.33D+00
 E= -152.404416526602     Delta-E=       -0.000000050127 Rises=F Damp=F
 DIIS: error= 1.76D-06 at cycle  12 NSaved=  12.
 NSaved=12 IEnMin=12 EnMin= -152.404416526602     IErMin=12 ErrMin= 1.76D-06
 ErrMax= 1.76D-06  0.00D+00 EMaxC= 1.00D-01 BMatC= 1.40D-09 BMatP= 2.34D-08
 IDIUse=1 WtCom= 1.00D+00 WtEn= 0.00D+00
 Coeff-Com:  0.660D-05 0.414D-05-0.132D-03-0.847D-04-0.171D-02 0.122D-02
 Coeff-Com:  0.104D-01 0.691D-02 0.129D-02-0.671D-01-0.106D+00 0.116D+01
 Coeff:      0.660D-05 0.414D-05-0.132D-03-0.847D-04-0.171D-02 0.122D-02
 Coeff:      0.104D-01 0.691D-02 0.129D-02-0.671D-01-0.106D+00 0.116D+01
 Gap=     0.040 Goal=   None    Shift=    0.000
 Gap=     0.102 Goal=   None    Shift=    0.000
 RMSDP=9.11D-04 MaxDP=1.01D-01 DE=-5.01D-08 OVMax= 1.12D-04

 Cycle  13  Pass 1  IDiag  1:
 RMSU=  7.51D-06    CP:  3.00D+00  1.43D+00 -3.82D-03  1.03D+00  1.65D+00
                    CP:  2.10D+00  2.35D+00  3.00D+00  1.96D+00  2.94D+00
                    CP:  1.38D+00  1.67D+00
 E= -152.404416528891     Delta-E=       -0.000000002289 Rises=F Damp=F
 DIIS: error= 6.71D-07 at cycle  13 NSaved=  13.
 NSaved=13 IEnMin=13 EnMin= -152.404416528891     IErMin=13 ErrMin= 6.71D-07
 ErrMax= 6.71D-07  0.00D+00 EMaxC= 1.00D-01 BMatC= 2.11D-10 BMatP= 1.40D-09
 IDIUse=1 WtCom= 1.00D+00 WtEn= 0.00D+00
 Coeff-Com: -0.217D-05-0.213D-05 0.522D-04 0.148D-03-0.551D-03-0.141D-02
 Coeff-Com: -0.197D-02 0.448D-02 0.757D-02 0.405D-02-0.802D-01-0.266D-01
 Coeff-Com:  0.109D+01
 Coeff:     -0.217D-05-0.213D-05 0.522D-04 0.148D-03-0.551D-03-0.141D-02
 Coeff:     -0.197D-02 0.448D-02 0.757D-02 0.405D-02-0.802D-01-0.266D-01
 Coeff:      0.109D+01
 Gap=     0.040 Goal=   None    Shift=    0.000
 Gap=     0.102 Goal=   None    Shift=    0.000
 RMSDP=3.22D-04 MaxDP=3.43D-02 DE=-2.29D-09 OVMax= 4.39D-05

 Cycle  14  Pass 1  IDiag  1:
 RMSU=  3.73D-06    CP:  3.00D+00  1.43D+00 -3.82D-03  1.03D+00  1.65D+00
                    CP:  2.10D+00  2.35D+00  3.00D+00  1.94D+00  2.97D+00
                    CP:  1.38D+00  1.89D+00  2.02D+00
 E= -152.404416529260     Delta-E=       -0.000000000369 Rises=F Damp=F
 DIIS: error= 5.12D-07 at cycle  14 NSaved=  14.
 NSaved=14 IEnMin=14 EnMin= -152.404416529260     IErMin=14 ErrMin= 5.12D-07
 ErrMax= 5.12D-07  0.00D+00 EMaxC= 1.00D-01 BMatC= 1.08D-10 BMatP= 2.11D-10
 IDIUse=1 WtCom= 1.00D+00 WtEn= 0.00D+00
 Coeff-Com: -0.163D-05 0.120D-06 0.112D-04-0.109D-05 0.102D-03 0.313D-04
 Coeff-Com: -0.496D-03-0.203D-02 0.108D-02 0.805D-02 0.692D-02-0.122D+00
 Coeff-Com:  0.232D-01 0.109D+01
 Coeff:     -0.163D-05 0.120D-06 0.112D-04-0.109D-05 0.102D-03 0.313D-04
 Coeff:     -0.496D-03-0.203D-02 0.108D-02 0.805D-02 0.692D-02-0.122D+00
 Coeff:      0.232D-01 0.109D+01
 Gap=     0.040 Goal=   None    Shift=    0.000
 Gap=     0.102 Goal=   None    Shift=    0.000
 RMSDP=1.45D-04 MaxDP=1.54D-02 DE=-3.69D-10 OVMax= 3.63D-05

 Cycle  15  Pass 1  IDiag  1:
 RMSU=  1.85D-06    CP:  3.00D+00  1.43D+00 -3.82D-03  1.03D+00  1.65D+00
                    CP:  2.10D+00  2.34D+00  3.00D+00  1.93D+00  2.97D+00
                    CP:  1.38D+00  1.96D+00  2.83D+00  2.27D+00
 E= -152.404416529515     Delta-E=       -0.000000000255 Rises=F Damp=F
 DIIS: error= 4.95D-07 at cycle  15 NSaved=  15.
 NSaved=15 IEnMin=15 EnMin= -152.404416529515     IErMin=15 ErrMin= 4.95D-07
 ErrMax= 4.95D-07  0.00D+00 EMaxC= 1.00D-01 BMatC= 3.14D-11 BMatP= 1.08D-10
 IDIUse=1 WtCom= 1.00D+00 WtEn= 0.00D+00
 Coeff-Com: -0.120D-06 0.131D-05-0.641D-05-0.205D-04 0.564D-04 0.106D-03
 Coeff-Com:  0.407D-03-0.633D-03-0.123D-02-0.116D-03 0.742D-02 0.333D-01
 Coeff-Com: -0.152D+00-0.244D+00 0.136D+01
 Coeff:     -0.120D-06 0.131D-05-0.641D-05-0.205D-04 0.564D-04 0.106D-03
 Coeff:      0.407D-03-0.633D-03-0.123D-02-0.116D-03 0.742D-02 0.333D-01
 Coeff:     -0.152D+00-0.244D+00 0.136D+01
 Gap=     0.040 Goal=   None    Shift=    0.000
 Gap=     0.102 Goal=   None    Shift=    0.000
 RMSDP=4.96D-05 MaxDP=4.81D-03 DE=-2.55D-10 OVMax= 3.87D-05

 Cycle  16  Pass 1  IDiag  1:
 RMSU=  5.87D-06    CP:  3.00D+00  1.43D+00 -3.83D-03  1.03D+00  1.65D+00
                    CP:  2.10D+00  2.35D+00  3.00D+00  1.93D+00  2.97D+00
                    CP:  1.38D+00  1.99D+00  3.00D+00  3.00D+00  2.62D+00
 E= -152.404416529752     Delta-E=       -0.000000000237 Rises=F Damp=F
 DIIS: error= 4.82D-07 at cycle  16 NSaved=  16.
 NSaved=16 IEnMin=16 EnMin= -152.404416529752     IErMin=16 ErrMin= 4.82D-07
 ErrMax= 4.82D-07  0.00D+00 EMaxC= 1.00D-01 BMatC= 2.40D-11 BMatP= 3.14D-11
 IDIUse=1 WtCom= 1.00D+00 WtEn= 0.00D+00
 Coeff-Com:  0.174D-05-0.280D-05 0.147D-05 0.335D-04-0.165D-03-0.183D-03
 Coeff-Com: -0.394D-03 0.277D-02 0.931D-03-0.593D-02-0.163D-01 0.379D-01
 Coeff-Com:  0.226D+00-0.494D+00-0.182D+01 0.307D+01
 Coeff:      0.174D-05-0.280D-05 0.147D-05 0.335D-04-0.165D-03-0.183D-03
 Coeff:     -0.394D-03 0.277D-02 0.931D-03-0.593D-02-0.163D-01 0.379D-01
 Coeff:      0.226D+00-0.494D+00-0.182D+01 0.307D+01
 Gap=     0.040 Goal=   None    Shift=    0.000
 Gap=     0.102 Goal=   None    Shift=    0.000
 RMSDP=2.86D-05 MaxDP=1.53D-03 DE=-2.37D-10 OVMax= 9.57D-05

 Cycle  17  Pass 1  IDiag  1:
 RMSU=  1.22D-05    CP:  3.00D+00  1.43D+00 -3.84D-03  1.03D+00  1.65D+00
                    CP:  2.10D+00  2.35D+00  3.00D+00  1.93D+00  2.97D+00
                    CP:  1.38D+00  2.06D+00  3.00D+00  3.00D+00  3.00D+00
                    CP:  3.00D+00
 E= -152.404416530249     Delta-E=       -0.000000000496 Rises=F Damp=F
 DIIS: error= 4.26D-07 at cycle  17 NSaved=  17.
 NSaved=17 IEnMin=17 EnMin= -152.404416530249     IErMin=17 ErrMin= 4.26D-07
 ErrMax= 4.26D-07  0.00D+00 EMaxC= 1.00D-01 BMatC= 1.75D-11 BMatP= 2.40D-11
 IDIUse=1 WtCom= 1.00D+00 WtEn= 0.00D+00
 Coeff-Com: -0.517D-06 0.368D-06-0.113D-06 0.195D-04-0.263D-04-0.433D-04
 Coeff-Com: -0.212D-03 0.828D-03 0.130D-02-0.189D-02-0.471D-02-0.383D-01
 Coeff-Com:  0.156D+00 0.376D+00-0.136D+01-0.943D+00 0.281D+01
 Coeff:     -0.517D-06 0.368D-06-0.113D-06 0.195D-04-0.263D-04-0.433D-04
 Coeff:     -0.212D-03 0.828D-03 0.130D-02-0.189D-02-0.471D-02-0.383D-01
 Coeff:      0.156D+00 0.376D+00-0.136D+01-0.943D+00 0.281D+01
 Gap=     0.040 Goal=   None    Shift=    0.000
 Gap=     0.102 Goal=   None    Shift=    0.000
 RMSDP=4.48D-05 MaxDP=2.14D-03 DE=-4.96D-10 OVMax= 1.92D-04

 Cycle  18  Pass 1  IDiag  1:
 RMSU=  2.29D-05    CP:  3.00D+00  1.43D+00 -3.84D-03  1.03D+00  1.65D+00
                    CP:  2.10D+00  2.35D+00  3.00D+00  1.93D+00  2.97D+00
                    CP:  1.38D+00  2.24D+00  3.00D+00  3.00D+00  3.00D+00
                    CP:  3.00D+00  3.00D+00
 E= -152.404416530997     Delta-E=       -0.000000000748 Rises=F Damp=F
 DIIS: error= 2.84D-07 at cycle  18 NSaved=  18.
 NSaved=18 IEnMin=18 EnMin= -152.404416530997     IErMin=18 ErrMin= 2.84D-07
 ErrMax= 2.84D-07  0.00D+00 EMaxC= 1.00D-01 BMatC= 9.20D-12 BMatP= 1.75D-11
 IDIUse=1 WtCom= 1.00D+00 WtEn= 0.00D+00
 Coeff-Com: -0.154D-05 0.319D-05-0.289D-05-0.260D-04 0.151D-03 0.149D-03
 Coeff-Com:  0.279D-03-0.211D-02-0.550D-03 0.392D-02 0.160D-01-0.465D-01
 Coeff-Com: -0.192D+00 0.561D+00 0.149D+01-0.319D+01 0.722D+00 0.164D+01
 Coeff:     -0.154D-05 0.319D-05-0.289D-05-0.260D-04 0.151D-03 0.149D-03
 Coeff:      0.279D-03-0.211D-02-0.550D-03 0.392D-02 0.160D-01-0.465D-01
 Coeff:     -0.192D+00 0.561D+00 0.149D+01-0.319D+01 0.722D+00 0.164D+01
 Gap=     0.040 Goal=   None    Shift=    0.000
 Gap=     0.102 Goal=   None    Shift=    0.000
 RMSDP=4.25D-05 MaxDP=2.14D-03 DE=-7.48D-10 OVMax= 1.74D-04

 Cycle  19  Pass 1  IDiag  1:
 RMSU=  1.53D-05    CP:  3.00D+00  1.43D+00 -3.83D-03  1.03D+00  1.65D+00
                    CP:  2.10D+00  2.35D+00  3.00D+00  1.93D+00  2.97D+00
                    CP:  1.38D+00  2.42D+00  3.00D+00  3.00D+00  3.00D+00
                    CP:  3.00D+00  3.00D+00  2.59D+00
 E= -152.404416531292     Delta-E=       -0.000000000295 Rises=F Damp=F
 DIIS: error= 1.12D-07 at cycle  19 NSaved=  19.
 NSaved=19 IEnMin=19 EnMin= -152.404416531292     IErMin=19 ErrMin= 1.12D-07
 ErrMax= 1.12D-07  0.00D+00 EMaxC= 1.00D-01 BMatC= 1.83D-12 BMatP= 9.20D-12
 IDIUse=1 WtCom= 1.00D+00 WtEn= 0.00D+00
 Coeff-Com:  0.833D-06-0.125D-05-0.175D-06-0.129D-05-0.250D-04-0.142D-04
 Coeff-Com: -0.283D-04 0.200D-03-0.116D-04-0.781D-03-0.586D-03 0.167D-01
 Coeff-Com: -0.174D-01-0.168D+00 0.160D+00 0.773D+00-0.890D+00-0.290D+00
 Coeff-Com:  0.142D+01
 Coeff:      0.833D-06-0.125D-05-0.175D-06-0.129D-05-0.250D-04-0.142D-04
 Coeff:     -0.283D-04 0.200D-03-0.116D-04-0.781D-03-0.586D-03 0.167D-01
 Coeff:     -0.174D-01-0.168D+00 0.160D+00 0.773D+00-0.890D+00-0.290D+00
 Coeff:      0.142D+01
 Gap=     0.040 Goal=   None    Shift=    0.000
 Gap=     0.102 Goal=   None    Shift=    0.000
 RMSDP=1.05D-05 MaxDP=8.47D-04 DE=-2.95D-10 OVMax= 3.49D-05

 Cycle  20  Pass 1  IDiag  1:
 RMSU=  5.65D-07    CP:  3.00D+00  1.43D+00 -3.83D-03  1.03D+00  1.65D+00
                    CP:  2.10D+00  2.35D+00  3.00D+00  1.93D+00  2.98D+00
                    CP:  1.38D+00  2.45D+00  3.00D+00  3.00D+00  3.00D+00
                    CP:  3.00D+00  3.00D+00  2.82D+00  1.14D+00
 E= -152.404416531310     Delta-E=       -0.000000000019 Rises=F Damp=F
 DIIS: error= 4.91D-08 at cycle  20 NSaved=  20.
 NSaved=20 IEnMin=20 EnMin= -152.404416531310     IErMin=20 ErrMin= 4.91D-08
 ErrMax= 4.91D-08  0.00D+00 EMaxC= 1.00D-01 BMatC= 5.03D-13 BMatP= 1.83D-12
 IDIUse=1 WtCom= 1.00D+00 WtEn= 0.00D+00
 Coeff-Com:  0.337D-06-0.827D-06-0.634D-06 0.742D-05-0.449D-04-0.465D-04
 Coeff-Com: -0.194D-04 0.639D-03 0.191D-03-0.153D-02-0.501D-02 0.214D-01
 Coeff-Com:  0.554D-01-0.207D+00-0.415D+00 0.107D+01-0.350D+00-0.517D+00
 Coeff-Com:  0.151D+00 0.120D+01
 Coeff:      0.337D-06-0.827D-06-0.634D-06 0.742D-05-0.449D-04-0.465D-04
 Coeff:     -0.194D-04 0.639D-03 0.191D-03-0.153D-02-0.501D-02 0.214D-01
 Coeff:      0.554D-01-0.207D+00-0.415D+00 0.107D+01-0.350D+00-0.517D+00
 Coeff:      0.151D+00 0.120D+01
 Gap=     0.040 Goal=   None    Shift=    0.000
 Gap=     0.102 Goal=   None    Shift=    0.000
 RMSDP=1.54D-06 MaxDP=1.12D-04 DE=-1.88D-11 OVMax= 1.24D-05

 Cycle  21  Pass 1  IDiag  1:
 Restarting incremental Fock formation.
 E= -152.404416531303     Delta-E=        0.000000000007 Rises=F Damp=F
 DIIS: error= 1.42D-08 at cycle  21 NSaved=  20.
 NSaved=20 IEnMin=19 EnMin= -152.404416531310     IErMin=20 ErrMin= 1.42D-08
 ErrMax= 1.42D-08  0.00D+00 EMaxC= 1.00D-01 BMatC= 9.43D-14 BMatP= 5.03D-13
 IDIUse=1 WtCom= 1.00D+00 WtEn= 0.00D+00
 Coeff-Com: -0.948D-07 0.777D-06-0.280D-06 0.148D-04 0.456D-05-0.684D-05
 Coeff-Com: -0.190D-03-0.762D-04 0.799D-03 0.562D-03-0.884D-02-0.214D-02
 Coeff-Com:  0.617D-01 0.247D-01-0.292D+00 0.212D+00 0.163D+00-0.335D+00
 Coeff-Com: -0.220D+00 0.140D+01
 Coeff:     -0.948D-07 0.777D-06-0.280D-06 0.148D-04 0.456D-05-0.684D-05
 Coeff:     -0.190D-03-0.762D-04 0.799D-03 0.562D-03-0.884D-02-0.214D-02
 Coeff:      0.617D-01 0.247D-01-0.292D+00 0.212D+00 0.163D+00-0.335D+00
 Coeff:     -0.220D+00 0.140D+01
 Gap=     0.040 Goal=   None    Shift=    0.000
 Gap=     0.102 Goal=   None    Shift=    0.000
 RMSDP=3.60D-06 MaxDP=3.18D-04 DE= 7.33D-12 OVMax= 5.17D-06

 Cycle  22  Pass 1  IDiag  1:
 RMSU=  1.39D-06    CP:  1.00D+00
 E= -152.404416531272     Delta-E=        0.000000000031 Rises=F Damp=F
 DIIS: error= 7.31D-09 at cycle  22 NSaved=  20.
 NSaved=20 IEnMin=18 EnMin= -152.404416531310     IErMin=20 ErrMin= 7.31D-09
 ErrMax= 7.31D-09  0.00D+00 EMaxC= 1.00D-01 BMatC= 2.20D-14 BMatP= 9.43D-14
 IDIUse=1 WtCom= 1.00D+00 WtEn= 0.00D+00
 Large coefficients: NSaved= 20 BigCof=    0.00 CofMax=   10.00 Det=-7.50D-15
 Inversion failed.  Reducing to 19 matrices.
 Large coefficients: NSaved= 19 BigCof=    0.00 CofMax=   10.00 Det=-7.60D-15
 Inversion failed.  Reducing to 18 matrices.
 Large coefficients: NSaved= 18 BigCof=    0.00 CofMax=   10.00 Det=-7.77D-15
 Inversion failed.  Reducing to 17 matrices.
 Large coefficients: NSaved= 17 BigCof=    0.00 CofMax=   10.00 Det=-9.41D-15
 Inversion failed.  Reducing to 16 matrices.
 Large coefficients: NSaved= 16 BigCof=    0.00 CofMax=   10.00 Det=-9.41D-15
 Inversion failed.  Reducing to 15 matrices.
 Coeff-Com:  0.546D-05 0.224D-05 0.365D-04-0.167D-03 0.102D-02 0.481D-03
 Coeff-Com: -0.551D-02 0.269D-01-0.293D-01-0.266D-02 0.133D-01 0.299D-01
 Coeff-Com: -0.339D-01-0.299D+00 0.130D+01
 Coeff:      0.546D-05 0.224D-05 0.365D-04-0.167D-03 0.102D-02 0.481D-03
 Coeff:     -0.551D-02 0.269D-01-0.293D-01-0.266D-02 0.133D-01 0.299D-01
 Coeff:     -0.339D-01-0.299D+00 0.130D+01
 Gap=     0.040 Goal=   None    Shift=    0.000
 Gap=     0.102 Goal=   None    Shift=    0.000
 RMSDP=9.04D-07 MaxDP=7.76D-05 DE= 3.08D-11 OVMax= 1.77D-06

 Cycle  23  Pass 1  IDiag  1:
 RMSU=  2.59D-07    CP:  1.00D+00  1.28D+00
 E= -152.404416531299     Delta-E=       -0.000000000027 Rises=F Damp=F
 DIIS: error= 2.61D-09 at cycle  23 NSaved=  16.
 NSaved=16 IEnMin=13 EnMin= -152.404416531310     IErMin=16 ErrMin= 2.61D-09
 ErrMax= 2.61D-09  0.00D+00 EMaxC= 1.00D-01 BMatC= 3.31D-15 BMatP= 2.20D-14
 IDIUse=1 WtCom= 1.00D+00 WtEn= 0.00D+00
 Large coefficients: NSaved= 16 BigCof=    0.00 CofMax=   10.00 Det=-3.20D-15
 Inversion failed.  Reducing to 15 matrices.
 Coeff-Com: -0.187D-04-0.516D-04 0.121D-03 0.653D-03-0.199D-02-0.749D-02
 Coeff-Com:  0.713D-02 0.303D-01-0.298D-01-0.193D-01 0.506D-01 0.251D-01
 Coeff-Com: -0.268D+00 0.550D-01 0.116D+01
 Coeff:     -0.187D-04-0.516D-04 0.121D-03 0.653D-03-0.199D-02-0.749D-02
 Coeff:      0.713D-02 0.303D-01-0.298D-01-0.193D-01 0.506D-01 0.251D-01
 Coeff:     -0.268D+00 0.550D-01 0.116D+01
 Gap=     0.040 Goal=   None    Shift=    0.000
 Gap=     0.102 Goal=   None    Shift=    0.000
 RMSDP=5.86D-07 MaxDP=5.81D-05 DE=-2.69D-11 OVMax= 9.73D-07

 Cycle  24  Pass 1  IDiag  1:
 RMSU=  1.04D-07    CP:  1.00D+00  1.43D+00  1.38D+00
 E= -152.404416531338     Delta-E=       -0.000000000039 Rises=F Damp=F
 DIIS: error= 1.58D-09 at cycle  24 NSaved=  16.
 NSaved=16 IEnMin=16 EnMin= -152.404416531338     IErMin=16 ErrMin= 1.58D-09
 ErrMax= 1.58D-09  0.00D+00 EMaxC= 1.00D-01 BMatC= 7.34D-16 BMatP= 3.31D-15
 IDIUse=1 WtCom= 1.00D+00 WtEn= 0.00D+00
 Large coefficients: NSaved= 16 BigCof=    0.00 CofMax=   10.00 Det=-6.80D-16
 Inversion failed.  Reducing to 15 matrices.
 Coeff-Com: -0.364D-05 0.203D-04-0.140D-03 0.236D-04 0.314D-02-0.120D-02
 Coeff-Com: -0.351D-02 0.224D-02-0.642D-03-0.332D-02 0.740D-02 0.221D-01
 Coeff-Com: -0.161D+00 0.161D+00 0.974D+00
 Coeff:     -0.364D-05 0.203D-04-0.140D-03 0.236D-04 0.314D-02-0.120D-02
 Coeff:     -0.351D-02 0.224D-02-0.642D-03-0.332D-02 0.740D-02 0.221D-01
 Coeff:     -0.161D+00 0.161D+00 0.974D+00
 Gap=     0.040 Goal=   None    Shift=    0.000
 Gap=     0.102 Goal=   None    Shift=    0.000
 RMSDP=3.44D-07 MaxDP=3.48D-05 DE=-3.87D-11 OVMax= 1.17D-07

 Cycle  25  Pass 1  IDiag  1:
 RMSU=  3.67D-08    CP:  1.00D+00  1.44D+00  1.36D+00  1.18D+00
 E= -152.404416531328     Delta-E=        0.000000000010 Rises=F Damp=F
 DIIS: error= 2.94D-10 at cycle  25 NSaved=  16.
 NSaved=16 IEnMin=15 EnMin= -152.404416531338     IErMin=16 ErrMin= 2.94D-10
 ErrMax= 2.94D-10  0.00D+00 EMaxC= 1.00D-01 BMatC= 4.44D-17 BMatP= 7.34D-16
 IDIUse=1 WtCom= 1.00D+00 WtEn= 0.00D+00
 Large coefficients: NSaved= 16 BigCof=    0.00 CofMax=   10.00 Det=-1.51D-16
 Inversion failed.  Reducing to 15 matrices.
 Coeff-Com:  0.109D-04-0.426D-04 0.684D-04 0.381D-03-0.162D-02-0.513D-03
 Coeff-Com:  0.280D-02 0.221D-03-0.688D-02 0.132D-02 0.366D-01-0.605D-01
 Coeff-Com: -0.591D-01 0.254D+00 0.834D+00
 Coeff:      0.109D-04-0.426D-04 0.684D-04 0.381D-03-0.162D-02-0.513D-03
 Coeff:      0.280D-02 0.221D-03-0.688D-02 0.132D-02 0.366D-01-0.605D-01
 Coeff:     -0.591D-01 0.254D+00 0.834D+00
 Gap=     0.040 Goal=   None    Shift=    0.000
 Gap=     0.102 Goal=   None    Shift=    0.000
 RMSDP=2.67D-08 MaxDP=2.58D-06 DE= 9.81D-12 OVMax= 3.23D-08

 Cycle  26  Pass 1  IDiag  1:
 RMSU=  5.89D-09    CP:  1.00D+00  1.45D+00  1.33D+00  1.23D+00  1.02D+00
 E= -152.404416531326     Delta-E=        0.000000000002 Rises=F Damp=F
 DIIS: error= 1.17D-10 at cycle  26 NSaved=  16.
 NSaved=16 IEnMin=14 EnMin= -152.404416531338     IErMin=16 ErrMin= 1.17D-10
 ErrMax= 1.17D-10  0.00D+00 EMaxC= 1.00D-01 BMatC= 6.52D-18 BMatP= 4.44D-17
 IDIUse=1 WtCom= 1.00D+00 WtEn= 0.00D+00
 Large coefficients: NSaved= 16 BigCof=    0.00 CofMax=   10.00 Det=-2.41D-17
 Inversion failed.  Reducing to 15 matrices.
 Coeff-Com: -0.228D-04 0.548D-04 0.678D-04-0.930D-03 0.303D-03 0.881D-03
 Coeff-Com:  0.172D-04-0.164D-02-0.434D-04 0.940D-02-0.146D-01-0.196D-01
 Coeff-Com:  0.102D-01 0.304D+00 0.712D+00
 Coeff:     -0.228D-04 0.548D-04 0.678D-04-0.930D-03 0.303D-03 0.881D-03
 Coeff:      0.172D-04-0.164D-02-0.434D-04 0.940D-02-0.146D-01-0.196D-01
 Coeff:      0.102D-01 0.304D+00 0.712D+00
 Gap=     0.040 Goal=   None    Shift=    0.000
 Gap=     0.102 Goal=   None    Shift=    0.000
 RMSDP=2.22D-08 MaxDP=2.48D-06 DE= 2.39D-12 OVMax= 4.25D-09

 Cycle  27  Pass 1  IDiag  1:
 RMSU=  9.39D-10    CP:  1.00D+00  1.45D+00  1.34D+00  1.25D+00  9.97D-01
                    CP:  1.07D+00
 E= -152.404416531314     Delta-E=        0.000000000011 Rises=F Damp=F
 DIIS: error= 2.82D-11 at cycle  27 NSaved=  16.
 NSaved=16 IEnMin=13 EnMin= -152.404416531338     IErMin=16 ErrMin= 2.82D-11
 ErrMax= 2.82D-11  0.00D+00 EMaxC= 1.00D-01 BMatC= 5.44D-19 BMatP= 6.52D-18
 IDIUse=1 WtCom= 1.00D+00 WtEn= 0.00D+00
 Large coefficients: NSaved= 16 BigCof=    0.00 CofMax=   10.00 Det=-2.83D-18
 Inversion failed.  Reducing to 15 matrices.
 Coeff-Com: -0.289D-05-0.493D-04-0.154D-05 0.243D-03-0.238D-03-0.662D-04
 Coeff-Com:  0.479D-03-0.231D-03-0.102D-02-0.172D-03 0.412D-02-0.221D-01
 Coeff-Com: -0.129D-02 0.132D+00 0.889D+00
 Coeff:     -0.289D-05-0.493D-04-0.154D-05 0.243D-03-0.238D-03-0.662D-04
 Coeff:      0.479D-03-0.231D-03-0.102D-02-0.172D-03 0.412D-02-0.221D-01
 Coeff:     -0.129D-02 0.132D+00 0.889D+00
 Gap=     0.040 Goal=   None    Shift=    0.000
 Gap=     0.102 Goal=   None    Shift=    0.000
 RMSDP=3.07D-09 MaxDP=2.72D-07 DE= 1.15D-11 OVMax= 2.01D-09

 SCF Done:  E(UB3LYP) =  -152.404416531     A.U. after   27 cycles
            NFock= 27  Conv=0.31D-08     -V/T= 2.0020
 <Sx>= 0.0000 <Sy>= 0.0000 <Sz>= 1.5000 <S**2>= 3.7546 S= 1.5011
 <L.S>= 0.000000000000E+00
 KE= 1.521060670502D+02 PE=-4.762052594444D+02 EE= 1.128237350662D+02
 Annihilation of the first spin contaminant:
 S**2 before annihilation     3.7546,   after     3.7500
 Leave Link  502 at Wed Mar  6 17:11:12 2019, MaxMem=    33554432 cpu:       250.5
 (Enter /home/proyectos/fulerenos/M3C-v2.0/M3C-deps_CCC/g09-AM64L-G09RevC.01/l601.exe)
 Copying SCF densities to generalized density rwf, IOpCl= 1 IROHF=0.

 **********************************************************************

            Population analysis using the SCF density.

 **********************************************************************

 Alpha  occ. eigenvalues --  -19.14962 -10.19934 -10.14648  -1.07164  -0.72730
 Alpha  occ. eigenvalues --   -0.58309  -0.46312  -0.41849  -0.40563  -0.23383
 Alpha  occ. eigenvalues --   -0.22752   0.02232   0.04900
 Alpha virt. eigenvalues --    0.08921   0.10272   0.12741   0.14330   0.14930
 Alpha virt. eigenvalues --    0.16266   0.17528   0.18415   0.19373   0.23369
 Alpha virt. eigenvalues --    0.25157   0.27610   0.30820   0.32198   0.32356
 Alpha virt. eigenvalues --    0.36448   0.37158   0.41392   0.44103   0.46082
 Alpha virt. eigenvalues --    0.52194   0.52924   0.53313   0.53615   0.57287
 Alpha virt. eigenvalues --    0.59586   0.62285   0.64932   0.69435   0.71217
 Alpha virt. eigenvalues --    0.71994   0.82882   0.83173   0.89675   0.92060
 Alpha virt. eigenvalues --    0.95378   0.98144   1.00898   1.04850   1.17021
 Alpha virt. eigenvalues --    1.18301   1.22756   1.24131   1.27073   1.27247
 Alpha virt. eigenvalues --    1.34052   1.41741   1.46246   1.49450   1.51320
 Alpha virt. eigenvalues --    1.52637   1.55869   1.61252   1.67505   1.71495
 Alpha virt. eigenvalues --    1.81145   1.81940   1.88122   2.12997   2.38036
 Alpha virt. eigenvalues --    2.39837   2.55920   2.66450   2.68476   2.75088
 Alpha virt. eigenvalues --    2.75586   2.77960   2.81188   2.81847   2.85130
 Alpha virt. eigenvalues --    2.92362   3.00130   3.05354   3.07427   3.13083
 Alpha virt. eigenvalues --    3.18317   3.24368   3.26033   3.26437   3.39197
 Alpha virt. eigenvalues --    3.63734   3.68480   3.79343   3.80405   3.82107
 Alpha virt. eigenvalues --    4.06300   4.09603   4.16562   4.37985   4.44940
 Alpha virt. eigenvalues --    4.48294   4.81171   5.00548   5.11817   5.24589
 Alpha virt. eigenvalues --    5.28481   5.37565   5.52772   5.58619   5.66298
 Alpha virt. eigenvalues --    5.73396   6.29122   6.71207   6.75911   6.84849
 Alpha virt. eigenvalues --    6.97123   6.98762   7.09188   7.10943   7.25340
 Alpha virt. eigenvalues --    7.29926   7.32406   7.55634   7.62714   8.29726
 Alpha virt. eigenvalues --    8.67997  14.33291  14.45894  14.72300  14.99895
 Alpha virt. eigenvalues --   15.20590  24.38440  26.75150  50.44872
  Beta  occ. eigenvalues --  -19.13954 -10.19440 -10.13407  -1.05124  -0.68871
  Beta  occ. eigenvalues --   -0.56518  -0.44738  -0.40477  -0.36044  -0.20475
  Beta virt. eigenvalues --   -0.10302   0.08193   0.10720   0.11313   0.13771
  Beta virt. eigenvalues --    0.14455   0.15925   0.16161   0.18700   0.19233
  Beta virt. eigenvalues --    0.21156   0.21227   0.24839   0.26959   0.29670
  Beta virt. eigenvalues --    0.31897   0.33190   0.33332   0.37597   0.38247
  Beta virt. eigenvalues --    0.42572   0.45308   0.47374   0.53650   0.54077
  Beta virt. eigenvalues --    0.55036   0.55397   0.58833   0.61468   0.63304
  Beta virt. eigenvalues --    0.66248   0.71033   0.73096   0.73760   0.83700
  Beta virt. eigenvalues --    0.84734   0.90383   0.93133   0.96353   0.99092
  Beta virt. eigenvalues --    1.01980   1.06104   1.18067   1.19510   1.24556
  Beta virt. eigenvalues --    1.25000   1.27982   1.28270   1.35495   1.43336
  Beta virt. eigenvalues --    1.48047   1.51061   1.54624   1.55376   1.58054
  Beta virt. eigenvalues --    1.63261   1.70397   1.72936   1.83326   1.84546
  Beta virt. eigenvalues --    1.90969   2.13686   2.40604   2.41182   2.57731
  Beta virt. eigenvalues --    2.68969   2.71773   2.76857   2.77953   2.79878
  Beta virt. eigenvalues --    2.85003   2.85043   2.86619   2.95467   3.01718
  Beta virt. eigenvalues --    3.07190   3.11024   3.16094   3.20739   3.25369
  Beta virt. eigenvalues --    3.27240   3.28586   3.41645   3.66009   3.69858
  Beta virt. eigenvalues --    3.81263   3.82798   3.84102   4.08075   4.11801
  Beta virt. eigenvalues --    4.17626   4.39005   4.46145   4.49336   4.82585
  Beta virt. eigenvalues --    5.01726   5.14646   5.26619   5.30475   5.38916
  Beta virt. eigenvalues --    5.55272   5.59985   5.68101   5.74569   6.30022
  Beta virt. eigenvalues --    6.72327   6.77917   6.86599   7.00787   7.02566
  Beta virt. eigenvalues --    7.13633   7.15092   7.29104   7.31816   7.33715
  Beta virt. eigenvalues --    7.58591   7.63905   8.30877   8.69477  14.36422
  Beta virt. eigenvalues --   14.48873  14.75319  15.01575  15.21691  24.39425
  Beta virt. eigenvalues --   26.76346  50.45919
          Condensed to atoms (all electrons):
               1          2          3          4          5
     1  C  235.098409-273.050577  59.320928 -12.986820   0.522478
     2  C -273.050577 356.752245 -96.278539  11.784970  -0.346239
     3  H   59.320928 -96.278539  43.194667  -1.589486   0.151142
     4  H  -12.986820  11.784970  -1.589486   5.618568  -0.646466
     5  O    0.522478  -0.346239   0.151142  -0.646466   8.573327
          Atomic-Atomic Spin Densities.
               1          2          3          4          5
     1  C  228.887785-271.485063  58.919052 -12.994208   0.490830
     2  C -271.485063 349.605620 -96.182456  11.839873  -0.447317
     3  H   58.919052 -96.182456  42.876721  -1.589326   0.150301
     4  H  -12.994208  11.839873  -1.589326   5.288952  -0.933930
     5  O    0.490830  -0.447317   0.150301  -0.933930   0.805409
 Mulliken charges and spin densities:
               1          2
     1  C   -2.904419   3.818397
     2  C    7.138140  -6.669342
     3  H   -3.798713   4.174292
     4  H   -1.180766   1.611361
     5  O   -0.254243   0.065292
 Sum of Mulliken charges =  -1.00000   3.00000
 Mulliken charges and spin densities with hydrogens summed into heavy atoms:
               1          2
     1  C   -6.703132   7.992689
     2  C    7.138140  -6.669342
     5  O   -1.435008   1.676654
 Electronic spatial extent (au):  <R**2>=            244.1876
 Charge=             -1.0000 electrons
 Dipole moment (field-independent basis, Debye):
    X=             -3.4938    Y=             -2.6815    Z=              2.8652  Tot=              5.2542
 Quadrupole moment (field-independent basis, Debye-Ang):
   XX=            -79.9257   YY=            -45.0743   ZZ=            -44.5275
   XY=             11.4274   XZ=             17.3124   YZ=             -3.1692
 Traceless Quadrupole moment (field-independent basis, Debye-Ang):
   XX=            -23.4166   YY=             11.4349   ZZ=             11.9816
   XY=             11.4274   XZ=             17.3124   YZ=             -3.1692
 Octapole moment (field-independent basis, Debye-Ang**2):
  XXX=           -113.3892  YYY=            -53.6613  ZZZ=             64.6319  XYY=             -6.4623
  XXY=            -33.3823  XXZ=             52.5712  XZZ=            -38.7417  YZZ=            -14.7773
  YYZ=             15.8281  XYZ=              3.8140
 Hexadecapole moment (field-independent basis, Debye-Ang**3):
 XXXX=          -1384.4002 YYYY=           -298.6613 ZZZZ=           -384.1682 XXXY=            104.9134
 XXXZ=            329.8920 YYYX=             84.5544 YYYZ=            -15.9007 ZZZX=            220.0038
 ZZZY=            -12.7537 XXYY=           -255.3322 XXZZ=           -304.7661 YYZZ=           -111.2098
 XXYZ=            -12.0947 YYXZ=             70.3108 ZZXY=             23.7461
 N-N= 5.887104079669D+01 E-N=-4.762052594446D+02  KE= 1.521060670502D+02
                          Isotropic Fermi Contact Couplings
        Atom                 a.u.       MegaHertz       Gauss      10(-4) cm-1
     1  C(13)              0.20531      76.93751      27.45322      25.66359
     2  C(13)             -0.01851      -6.93566      -2.47482      -2.31349
     3  H(1)              -0.01471     -21.91263      -7.81897      -7.30927
     4  H(1)               0.02844      42.36914      15.11836      14.13282
     5  O(17)              0.56817    -114.80781     -40.96628     -38.29576
 --------------------------------------------------------
       Center         ----  Spin Dipole Couplings  ----
                      3XX-RR        3YY-RR        3ZZ-RR
 --------------------------------------------------------
     1   Atom       -0.252866     -0.298223      0.551089
     2   Atom       -0.121062      0.038211      0.082852
     3   Atom        0.065263     -0.051490     -0.013773
     4   Atom        0.003748      0.028016     -0.031765
     5   Atom       -0.292617     -0.471539      0.764155
 --------------------------------------------------------
                        XY            XZ            YZ
 --------------------------------------------------------
     1   Atom        0.116794      0.397934      0.085854
     2   Atom        0.032962      0.098839     -0.003577
     3   Atom       -0.016748     -0.036995      0.010112
     4   Atom       -0.059481     -0.007520      0.017075
     5   Atom        0.091608      0.537268      0.156432
 --------------------------------------------------------


 ---------------------------------------------------------------------------------
              Anisotropic Spin Dipole Couplings in Principal Axis System
 ---------------------------------------------------------------------------------

       Atom             a.u.   MegaHertz   Gauss  10(-4) cm-1        Axes

              Baa    -0.4558   -61.167   -21.826   -20.403  0.8376 -0.4619 -0.2917
     1 C(13)  Bbb    -0.2739   -36.756   -13.115   -12.260  0.3876  0.8788 -0.2784
              Bcc     0.7297    97.923    34.941    32.663  0.3849  0.1202  0.9151
 
              Baa    -0.1661   -22.288    -7.953    -7.434  0.9175 -0.1544 -0.3665
     2 C(13)  Bbb     0.0422     5.662     2.020     1.889  0.1014  0.9819 -0.1600
              Bcc     0.1239    16.626     5.932     5.546  0.3846  0.1097  0.9166
 
              Baa    -0.0547   -29.163   -10.406    -9.728  0.0864  0.9825 -0.1648
     3 H(1)   Bbb    -0.0280   -14.937    -5.330    -4.982  0.3846  0.1198  0.9153
              Bcc     0.0827    44.100    15.736    14.710  0.9190 -0.1425 -0.3675
 
              Baa    -0.0468   -24.978    -8.913    -8.332  0.6839  0.6282 -0.3710
     4 H(1)   Bbb    -0.0327   -17.439    -6.223    -5.817  0.3856  0.1205  0.9148
              Bcc     0.0795    42.417    15.136    14.149 -0.6194  0.7686  0.1598
 
              Baa    -0.5324    38.521    13.745    12.849  0.8107 -0.5176 -0.2735
     5 O(17)  Bbb    -0.4787    34.642    12.361    11.555  0.4407  0.8471 -0.2971
              Bcc     1.0111   -73.163   -26.106   -24.405  0.3855  0.1203  0.9148
 

 ---------------------------------------------------------------------------------

 No NMR shielding tensors so no spin-rotation constants.
 Leave Link  601 at Wed Mar  6 17:11:12 2019, MaxMem=    33554432 cpu:         0.8
 (Enter /home/proyectos/fulerenos/M3C-v2.0/M3C-deps_CCC/g09-AM64L-G09RevC.01/l701.exe)
 Compute integral first derivatives.
 ... and contract with generalized density number  0.
 Leave Link  701 at Wed Mar  6 17:11:13 2019, MaxMem=    33554432 cpu:         0.5
 (Enter /home/proyectos/fulerenos/M3C-v2.0/M3C-deps_CCC/g09-AM64L-G09RevC.01/l702.exe)
 L702 exits ... SP integral derivatives will be done elsewhere.
 Leave Link  702 at Wed Mar  6 17:11:13 2019, MaxMem=    33554432 cpu:         0.0
 (Enter /home/proyectos/fulerenos/M3C-v2.0/M3C-deps_CCC/g09-AM64L-G09RevC.01/l703.exe)
 Compute integral first derivatives, UseDBF=F ICtDFT=           0.
 Integral derivatives from FoFJK, PRISM(SPDF).
 Calling FoFJK, ICntrl=      2127 FMM=F ISym2X=0 I1Cent= 0 IOpClX= 1 NMat=1 NMatS=1 NMatT=0.
 FoFJK:  IHMeth= 1 ICntrl=    2127 DoSepK=F KAlg= 0 I1Cent=   0 FoldK=F
 IRaf=         0 NMat=   1 IRICut=       1 DoRegI=T DoRafI=F ISym2E= 0.
 FoFCou: FMM=F IPFlag=           0 FMFlag=      100000 FMFlg1=         800
         NFxFlg=           0 DoJE=F BraDBF=F KetDBF=F FulRan=T
         wScrn=  0.000000 ICntrl=    2127 IOpCl=  1 I1Cent=           0 NGrid=           0
         NMat0=    1 NMatS0=      1 NMatT0=    0 NMatD0=    1 NMtDS0=    0 NMtDT0=    0
 Symmetry not used in FoFCou.
 Leave Link  703 at Wed Mar  6 17:11:25 2019, MaxMem=    33554432 cpu:        23.8
 (Enter /home/proyectos/fulerenos/M3C-v2.0/M3C-deps_CCC/g09-AM64L-G09RevC.01/l716.exe)
 Dipole        =-1.37456742D+00-1.05498766D+00 1.12725030D+00
 -------------------------------------------------------------------
 Center     Atomic                   Forces (Hartrees/Bohr)
 Number     Number              X              Y              Z
 -------------------------------------------------------------------
      1        6           0.038915035    0.006886237   -0.017307320
      2        6          -0.032348168   -0.000525970    0.013646078
      3        1           0.000873175   -0.004828881    0.000308169
      4        1          -0.035811574    0.055193945    0.007798573
      5        8           0.028371531   -0.056725331   -0.004445500
 -------------------------------------------------------------------
 Cartesian Forces:  Max     0.056725331 RMS     0.027749526
 Leave Link  716 at Wed Mar  6 17:11:25 2019, MaxMem=    33554432 cpu:         0.1
 (Enter /home/proyectos/fulerenos/M3C-v2.0/M3C-deps_CCC/g09-AM64L-G09RevC.01/l103.exe)

 GradGradGradGradGradGradGradGradGradGradGradGradGradGradGradGradGradGrad
 Berny optimization.
 FormGI is forming the generalized inverse of G from B-inverse, IUseBI=4.
 Internal  Forces:  Max     0.066245570 RMS     0.026757359
 Search for a local minimum.
 Step number   1 out of a maximum of  100
 All quantities printed in internal units (Hartrees-Bohrs-Radians)
 RMS Force = .26757D-01 SwitMx=.10000D-02 MixMth= 1
 Mixed Optimization -- RFO/linear search
 Second derivative matrix not updated -- first step.
 The second derivative matrix:
                          R1        R2        R3        R4        A1
           R1           0.88320
           R2           0.00000   0.36755
           R3           0.00000   0.00000   0.88061
           R4           0.00000   0.00000   0.00000   0.50525
           A1           0.00000   0.00000   0.00000   0.00000   0.16000
           A2           0.00000   0.00000   0.00000   0.00000   0.00000
           A3           0.00000   0.00000   0.00000   0.00000   0.00000
           A4           0.00000   0.00000   0.00000   0.00000   0.00000
           A5           0.00000   0.00000   0.00000   0.00000   0.00000
                          A2        A3        A4        A5
           A2           0.00449
           A3           0.00000   0.03842
           A4           0.00000   0.00000   0.00449
           A5           0.00000   0.00000   0.00000   0.03842
 ITU=  0
     Eigenvalues ---    0.00449   0.00449   0.03842   0.03842   0.16000
     Eigenvalues ---    0.36755   0.50525   0.88061   0.88320
 RFO step:  Lambda=-1.57265455D-02 EMin= 4.49221556D-03
 Linear search not attempted -- first point.
 Maximum step size (   0.300) exceeded in Quadratic search.
    -- Step size scaled by   0.584
 Iteration  1 RMS(Cart)=  0.10456622 RMS(Int)=  0.03242255
 Iteration  2 RMS(Cart)=  0.00002490 RMS(Int)=  0.03240334
 Iteration  3 RMS(Cart)=  0.00002485 RMS(Int)=  0.03238417
 Iteration  4 RMS(Cart)=  0.00002479 RMS(Int)=  0.03236504
 Iteration  5 RMS(Cart)=  0.00002474 RMS(Int)=  0.03234595
 Iteration  6 RMS(Cart)=  0.00002469 RMS(Int)=  0.03232690
 Iteration  7 RMS(Cart)=  0.00002464 RMS(Int)=  0.03230788
 Iteration  8 RMS(Cart)=  0.00002459 RMS(Int)=  0.03228891
 Iteration  9 RMS(Cart)=  0.00002454 RMS(Int)=  0.03226998
 Iteration 10 RMS(Cart)=  0.00002449 RMS(Int)=  0.03225108
 Iteration 11 RMS(Cart)=  0.00002444 RMS(Int)=  0.03223223
 Iteration 12 RMS(Cart)=  0.00002439 RMS(Int)=  0.03221341
 Iteration 13 RMS(Cart)=  0.00002434 RMS(Int)=  0.03219464
 Iteration 14 RMS(Cart)=  0.00002429 RMS(Int)=  0.03217590
 Iteration 15 RMS(Cart)=  0.00002424 RMS(Int)=  0.03215720
 Iteration 16 RMS(Cart)=  0.00002419 RMS(Int)=  0.03213854
 Iteration 17 RMS(Cart)=  0.00002414 RMS(Int)=  0.03211991
 Iteration 18 RMS(Cart)=  0.00002409 RMS(Int)=  0.03210133
 Iteration 19 RMS(Cart)=  0.00002404 RMS(Int)=  0.03208278
 Iteration 20 RMS(Cart)=  0.00002399 RMS(Int)=  0.03206427
 Iteration 21 RMS(Cart)=  0.00002394 RMS(Int)=  0.03204580
 Iteration 22 RMS(Cart)=  0.00002389 RMS(Int)=  0.03202737
 Iteration 23 RMS(Cart)=  0.00002384 RMS(Int)=  0.03200897
 Iteration 24 RMS(Cart)=  0.00002379 RMS(Int)=  0.03199061
 Iteration 25 RMS(Cart)=  0.00002375 RMS(Int)=  0.03197229
 Iteration 26 RMS(Cart)=  0.00002370 RMS(Int)=  0.03195401
 Iteration 27 RMS(Cart)=  0.00002365 RMS(Int)=  0.03193576
 Iteration 28 RMS(Cart)=  0.00002360 RMS(Int)=  0.03191755
 Iteration 29 RMS(Cart)=  0.00002355 RMS(Int)=  0.03189937
 Iteration 30 RMS(Cart)=  0.00002351 RMS(Int)=  0.03188124
 Iteration 31 RMS(Cart)=  0.00002346 RMS(Int)=  0.03186314
 Iteration 32 RMS(Cart)=  0.00002341 RMS(Int)=  0.03184507
 Iteration 33 RMS(Cart)=  0.00002336 RMS(Int)=  0.03182705
 Iteration 34 RMS(Cart)=  0.00002332 RMS(Int)=  0.03180906
 Iteration 35 RMS(Cart)=  0.00002327 RMS(Int)=  0.03179110
 Iteration 36 RMS(Cart)=  0.00002322 RMS(Int)=  0.03177318
 Iteration 37 RMS(Cart)=  0.00002318 RMS(Int)=  0.03175530
 Iteration 38 RMS(Cart)=  0.00002313 RMS(Int)=  0.03173745
 Iteration 39 RMS(Cart)=  0.00002309 RMS(Int)=  0.03171964
 Iteration 40 RMS(Cart)=  0.00002304 RMS(Int)=  0.03170186
 Iteration 41 RMS(Cart)=  0.00002299 RMS(Int)=  0.03168412
 Iteration 42 RMS(Cart)=  0.00002295 RMS(Int)=  0.03166641
 Iteration 43 RMS(Cart)=  0.00002290 RMS(Int)=  0.03164874
 Iteration 44 RMS(Cart)=  0.00002286 RMS(Int)=  0.03163111
 Iteration 45 RMS(Cart)=  0.00002281 RMS(Int)=  0.03161351
 Iteration 46 RMS(Cart)=  0.00002277 RMS(Int)=  0.03159594
 Iteration 47 RMS(Cart)=  0.00002272 RMS(Int)=  0.03157841
 Iteration 48 RMS(Cart)=  0.00002268 RMS(Int)=  0.03156091
 Iteration 49 RMS(Cart)=  0.00002263 RMS(Int)=  0.03154345
 Iteration 50 RMS(Cart)=  0.00002259 RMS(Int)=  0.03152602
 Iteration 51 RMS(Cart)=  0.00002254 RMS(Int)=  0.03150863
 Iteration 52 RMS(Cart)=  0.00002250 RMS(Int)=  0.03149127
 Iteration 53 RMS(Cart)=  0.00002246 RMS(Int)=  0.03147394
 Iteration 54 RMS(Cart)=  0.00002241 RMS(Int)=  0.03145665
 Iteration 55 RMS(Cart)=  0.00002237 RMS(Int)=  0.03143939
 Iteration 56 RMS(Cart)=  0.00002232 RMS(Int)=  0.03142217
 Iteration 57 RMS(Cart)=  0.00002228 RMS(Int)=  0.03140497
 Iteration 58 RMS(Cart)=  0.00002224 RMS(Int)=  0.03138782
 Iteration 59 RMS(Cart)=  0.00002219 RMS(Int)=  0.03137069
 Iteration 60 RMS(Cart)=  0.00002215 RMS(Int)=  0.03135360
 Iteration 61 RMS(Cart)=  0.00002211 RMS(Int)=  0.03133654
 Iteration 62 RMS(Cart)=  0.00002207 RMS(Int)=  0.03131952
 Iteration 63 RMS(Cart)=  0.00002202 RMS(Int)=  0.03130253
 Iteration 64 RMS(Cart)=  0.00002198 RMS(Int)=  0.03128557
 Iteration 65 RMS(Cart)=  0.00002194 RMS(Int)=  0.03126864
 Iteration 66 RMS(Cart)=  0.00002190 RMS(Int)=  0.03125175
 Iteration 67 RMS(Cart)=  0.00002185 RMS(Int)=  0.03123489
 Iteration 68 RMS(Cart)=  0.00002181 RMS(Int)=  0.03121806
 Iteration 69 RMS(Cart)=  0.00002177 RMS(Int)=  0.03120126
 Iteration 70 RMS(Cart)=  0.00002173 RMS(Int)=  0.03118450
 Iteration 71 RMS(Cart)=  0.00002169 RMS(Int)=  0.03116777
 Iteration 72 RMS(Cart)=  0.00002164 RMS(Int)=  0.03115107
 Iteration 73 RMS(Cart)=  0.00002160 RMS(Int)=  0.03113440
 Iteration 74 RMS(Cart)=  0.00002156 RMS(Int)=  0.03111776
 Iteration 75 RMS(Cart)=  0.00002152 RMS(Int)=  0.03110116
 Iteration 76 RMS(Cart)=  0.00002148 RMS(Int)=  0.03108459
 Iteration 77 RMS(Cart)=  0.00002144 RMS(Int)=  0.03106805
 Iteration 78 RMS(Cart)=  0.00002140 RMS(Int)=  0.03105154
 Iteration 79 RMS(Cart)=  0.00002136 RMS(Int)=  0.03103506
 Iteration 80 RMS(Cart)=  0.00002132 RMS(Int)=  0.03101861
 Iteration 81 RMS(Cart)=  0.00002128 RMS(Int)=  0.03100219
 Iteration 82 RMS(Cart)=  0.00002124 RMS(Int)=  0.03098581
 Iteration 83 RMS(Cart)=  0.00002120 RMS(Int)=  0.03096945
 Iteration 84 RMS(Cart)=  0.00002116 RMS(Int)=  0.03095313
 Iteration 85 RMS(Cart)=  0.00002112 RMS(Int)=  0.03093684
 Iteration 86 RMS(Cart)=  0.00002108 RMS(Int)=  0.03092058
 Iteration 87 RMS(Cart)=  0.00002104 RMS(Int)=  0.03090434
 Iteration 88 RMS(Cart)=  0.00002100 RMS(Int)=  0.03088814
 Iteration 89 RMS(Cart)=  0.00002096 RMS(Int)=  0.03087197
 Iteration 90 RMS(Cart)=  0.00002092 RMS(Int)=  0.03085583
 Iteration 91 RMS(Cart)=  0.00002088 RMS(Int)=  0.03083972
 Iteration 92 RMS(Cart)=  0.00002084 RMS(Int)=  0.03082364
 Iteration 93 RMS(Cart)=  0.00002080 RMS(Int)=  0.03080759
 Iteration 94 RMS(Cart)=  0.00002076 RMS(Int)=  0.03079157
 Iteration 95 RMS(Cart)=  0.00002073 RMS(Int)=  0.03077558
 Iteration 96 RMS(Cart)=  0.00002069 RMS(Int)=  0.03075962
 Iteration 97 RMS(Cart)=  0.00002065 RMS(Int)=  0.03074369
 Iteration 98 RMS(Cart)=  0.00002061 RMS(Int)=  0.03072779
 Iteration 99 RMS(Cart)=  0.00002057 RMS(Int)=  0.03071191
 Iteration100 RMS(Cart)=  0.00002053 RMS(Int)=  0.03069607
 New curvilinear step not converged.
 ITry= 1 IFail=1 DXMaxC= 1.88D-01 DCOld= 1.00D+10 DXMaxT= 3.00D-01 DXLimC= 3.00D+00 Rises=F
 Iteration  1 RMS(Cart)=  0.10216915 RMS(Int)=  0.02338752
 Iteration  2 RMS(Cart)=  0.00002192 RMS(Int)=  0.02337035
 Iteration  3 RMS(Cart)=  0.00002188 RMS(Int)=  0.02335320
 Iteration  4 RMS(Cart)=  0.00002183 RMS(Int)=  0.02333610
 Iteration  5 RMS(Cart)=  0.00002179 RMS(Int)=  0.02331902
 Iteration  6 RMS(Cart)=  0.00002175 RMS(Int)=  0.02330198
 Iteration  7 RMS(Cart)=  0.00002171 RMS(Int)=  0.02328497
 Iteration  8 RMS(Cart)=  0.00002167 RMS(Int)=  0.02326799
 Iteration  9 RMS(Cart)=  0.00002162 RMS(Int)=  0.02325105
 Iteration 10 RMS(Cart)=  0.00002158 RMS(Int)=  0.02323414
 Iteration 11 RMS(Cart)=  0.00002154 RMS(Int)=  0.02321726
 Iteration 12 RMS(Cart)=  0.00002150 RMS(Int)=  0.02320042
 Iteration 13 RMS(Cart)=  0.00002146 RMS(Int)=  0.02318360
 Iteration 14 RMS(Cart)=  0.00002142 RMS(Int)=  0.02316682
 Iteration 15 RMS(Cart)=  0.00002138 RMS(Int)=  0.02315007
 Iteration 16 RMS(Cart)=  0.00002134 RMS(Int)=  0.02313335
 Iteration 17 RMS(Cart)=  0.00002129 RMS(Int)=  0.02311667
 Iteration 18 RMS(Cart)=  0.00002125 RMS(Int)=  0.02310002
 Iteration 19 RMS(Cart)=  0.00002121 RMS(Int)=  0.02308339
 Iteration 20 RMS(Cart)=  0.00002117 RMS(Int)=  0.02306680
 Iteration 21 RMS(Cart)=  0.00002113 RMS(Int)=  0.02305025
 Iteration 22 RMS(Cart)=  0.00002109 RMS(Int)=  0.02303372
 Iteration 23 RMS(Cart)=  0.00002105 RMS(Int)=  0.02301722
 Iteration 24 RMS(Cart)=  0.00002101 RMS(Int)=  0.02300076
 Iteration 25 RMS(Cart)=  0.00002097 RMS(Int)=  0.02298433
 Iteration 26 RMS(Cart)=  0.00002093 RMS(Int)=  0.02296792
 Iteration 27 RMS(Cart)=  0.00002089 RMS(Int)=  0.02295155
 Iteration 28 RMS(Cart)=  0.00002085 RMS(Int)=  0.02293521
 Iteration 29 RMS(Cart)=  0.00002082 RMS(Int)=  0.02291890
 Iteration 30 RMS(Cart)=  0.00002078 RMS(Int)=  0.02290262
 Iteration 31 RMS(Cart)=  0.00002074 RMS(Int)=  0.02288638
 Iteration 32 RMS(Cart)=  0.00002070 RMS(Int)=  0.02287016
 Iteration 33 RMS(Cart)=  0.00002066 RMS(Int)=  0.02285397
 Iteration 34 RMS(Cart)=  0.00002062 RMS(Int)=  0.02283781
 Iteration 35 RMS(Cart)=  0.00002058 RMS(Int)=  0.02282169
 Iteration 36 RMS(Cart)=  0.00002054 RMS(Int)=  0.02280559
 Iteration 37 RMS(Cart)=  0.00002051 RMS(Int)=  0.02278952
 Iteration 38 RMS(Cart)=  0.00002047 RMS(Int)=  0.02277349
 Iteration 39 RMS(Cart)=  0.00002043 RMS(Int)=  0.02275748
 Iteration 40 RMS(Cart)=  0.00002039 RMS(Int)=  0.02274150
 Iteration 41 RMS(Cart)=  0.00002035 RMS(Int)=  0.02272555
 Iteration 42 RMS(Cart)=  0.00002032 RMS(Int)=  0.02270964
 Iteration 43 RMS(Cart)=  0.00002028 RMS(Int)=  0.02269375
 Iteration 44 RMS(Cart)=  0.00002024 RMS(Int)=  0.02267789
 Iteration 45 RMS(Cart)=  0.00002020 RMS(Int)=  0.02266206
 Iteration 46 RMS(Cart)=  0.00002017 RMS(Int)=  0.02264626
 Iteration 47 RMS(Cart)=  0.00002013 RMS(Int)=  0.02263048
 Iteration 48 RMS(Cart)=  0.00002009 RMS(Int)=  0.02261474
 Iteration 49 RMS(Cart)=  0.00002006 RMS(Int)=  0.02259903
 Iteration 50 RMS(Cart)=  0.00002002 RMS(Int)=  0.02258334
 Iteration 51 RMS(Cart)=  0.00001998 RMS(Int)=  0.02256769
 Iteration 52 RMS(Cart)=  0.00001995 RMS(Int)=  0.02255206
 Iteration 53 RMS(Cart)=  0.00001991 RMS(Int)=  0.02253646
 Iteration 54 RMS(Cart)=  0.00001987 RMS(Int)=  0.02252089
 Iteration 55 RMS(Cart)=  0.00001984 RMS(Int)=  0.02250535
 Iteration 56 RMS(Cart)=  0.00001980 RMS(Int)=  0.02248983
 Iteration 57 RMS(Cart)=  0.00001976 RMS(Int)=  0.02247435
 Iteration 58 RMS(Cart)=  0.00001973 RMS(Int)=  0.02245889
 Iteration 59 RMS(Cart)=  0.00001969 RMS(Int)=  0.02244346
 Iteration 60 RMS(Cart)=  0.00001966 RMS(Int)=  0.02242806
 Iteration 61 RMS(Cart)=  0.00001962 RMS(Int)=  0.02241269
 Iteration 62 RMS(Cart)=  0.00001959 RMS(Int)=  0.02239734
 Iteration 63 RMS(Cart)=  0.00001955 RMS(Int)=  0.02238202
 Iteration 64 RMS(Cart)=  0.00001952 RMS(Int)=  0.02236673
 Iteration 65 RMS(Cart)=  0.00001948 RMS(Int)=  0.02235147
 Iteration 66 RMS(Cart)=  0.00001944 RMS(Int)=  0.02233623
 Iteration 67 RMS(Cart)=  0.00001941 RMS(Int)=  0.02232103
 Iteration 68 RMS(Cart)=  0.00001938 RMS(Int)=  0.02230585
 Iteration 69 RMS(Cart)=  0.00001934 RMS(Int)=  0.02229069
 Iteration 70 RMS(Cart)=  0.00001931 RMS(Int)=  0.02227557
 Iteration 71 RMS(Cart)=  0.00001927 RMS(Int)=  0.02226047
 Iteration 72 RMS(Cart)=  0.00001924 RMS(Int)=  0.02224540
 Iteration 73 RMS(Cart)=  0.00001920 RMS(Int)=  0.02223035
 Iteration 74 RMS(Cart)=  0.00001917 RMS(Int)=  0.02221533
 Iteration 75 RMS(Cart)=  0.00001913 RMS(Int)=  0.02220034
 Iteration 76 RMS(Cart)=  0.00001910 RMS(Int)=  0.02218538
 Iteration 77 RMS(Cart)=  0.00001907 RMS(Int)=  0.02217044
 Iteration 78 RMS(Cart)=  0.00001903 RMS(Int)=  0.02215553
 Iteration 79 RMS(Cart)=  0.00001900 RMS(Int)=  0.02214064
 Iteration 80 RMS(Cart)=  0.00001896 RMS(Int)=  0.02212578
 Iteration 81 RMS(Cart)=  0.00001893 RMS(Int)=  0.02211095
 Iteration 82 RMS(Cart)=  0.00001890 RMS(Int)=  0.02209614
 Iteration 83 RMS(Cart)=  0.00001886 RMS(Int)=  0.02208136
 Iteration 84 RMS(Cart)=  0.00001883 RMS(Int)=  0.02206661
 Iteration 85 RMS(Cart)=  0.00001880 RMS(Int)=  0.02205188
 Iteration 86 RMS(Cart)=  0.00001876 RMS(Int)=  0.02203718
 Iteration 87 RMS(Cart)=  0.00001873 RMS(Int)=  0.02202250
 Iteration 88 RMS(Cart)=  0.00001870 RMS(Int)=  0.02200785
 Iteration 89 RMS(Cart)=  0.00001867 RMS(Int)=  0.02199323
 Iteration 90 RMS(Cart)=  0.00001863 RMS(Int)=  0.02197863
 Iteration 91 RMS(Cart)=  0.00001860 RMS(Int)=  0.02196405
 Iteration 92 RMS(Cart)=  0.00001857 RMS(Int)=  0.02194950
 Iteration 93 RMS(Cart)=  0.00001854 RMS(Int)=  0.02193498
 Iteration 94 RMS(Cart)=  0.00001850 RMS(Int)=  0.02192048
 Iteration 95 RMS(Cart)=  0.00001847 RMS(Int)=  0.02190601
 Iteration 96 RMS(Cart)=  0.00001844 RMS(Int)=  0.02189156
 Iteration 97 RMS(Cart)=  0.00001841 RMS(Int)=  0.02187714
 Iteration 98 RMS(Cart)=  0.00001838 RMS(Int)=  0.02186275
 Iteration 99 RMS(Cart)=  0.00001834 RMS(Int)=  0.02184837
 Iteration100 RMS(Cart)=  0.00001831 RMS(Int)=  0.02183403
 New curvilinear step not converged.
 ITry= 2 IFail=1 DXMaxC= 1.85D-01 DCOld= 1.00D+10 DXMaxT= 3.00D-01 DXLimC= 3.00D+00 Rises=F
 Iteration  1 RMS(Cart)=  0.09983215 RMS(Int)=  0.01512790
 Iteration  2 RMS(Cart)=  0.01827784 RMS(Int)=  0.00101163
 Iteration  3 RMS(Cart)=  0.00031407 RMS(Int)=  0.00002323
 Iteration  4 RMS(Cart)=  0.00000045 RMS(Int)=  0.00000000
 ITry= 3 IFail=0 DXMaxC= 2.04D-01 DCOld= 1.00D+10 DXMaxT= 3.00D-01 DXLimC= 3.00D+00 Rises=F
 Variable       Old X    -DE/DX   Delta X   Delta X   Delta X     New X
                                 (Linear)    (Quad)   (Total)
    R1        2.33717   0.04324   0.00000   0.02810   0.02248   2.35965
    R2        2.02917   0.00059   0.00000   0.00090   0.00072   2.02990
    R3        2.33840   0.00827   0.00000   0.00539   0.00431   2.34271
    R4        1.86039   0.06625   0.00000   0.07429   0.05943   1.91982
    A1        2.03550   0.00202   0.00000   0.00673   0.00538   2.04088
    A2        3.11054   0.00990   0.00000   0.28619   0.22895   3.33949
    A3        3.24768   0.00383   0.00000   0.04135   0.03308   3.28076
    A4        3.14385  -0.00001   0.00000  -0.00036  -0.00028   3.14357
    A5        3.14353   0.00002   0.00000   0.00020   0.00016   3.14369
         Item               Value     Threshold  Converged?
 Maximum Force            0.066246     0.000450     NO 
 RMS     Force            0.026757     0.000300     NO 
 Maximum Displacement     0.203937     0.001800     NO 
 RMS     Displacement     0.112067     0.001200     NO 
 Predicted change in Energy=-6.085676D-03
 Lowest energy point so far.  Saving SCF results.
 GradGradGradGradGradGradGradGradGradGradGradGradGradGradGradGradGradGrad

 Leave Link  103 at Wed Mar  6 17:11:25 2019, MaxMem=    33554432 cpu:         0.2
 (Enter /home/proyectos/fulerenos/M3C-v2.0/M3C-deps_CCC/g09-AM64L-G09RevC.01/l202.exe)
                          Input orientation:                          
 ---------------------------------------------------------------------
 Center     Atomic      Atomic             Coordinates (Angstroms)
 Number     Number       Type             X           Y           Z
 ---------------------------------------------------------------------
      1          6           0        1.111478    0.374175   -0.734240
      2          6           0       -0.038035    0.349018   -0.247233
      3          1           0        2.094752    0.185748   -1.123497
      4          1           0       -1.746397    0.968888    0.390899
      5          8           0       -1.156620    0.153723    0.250266
 ---------------------------------------------------------------------
                    Distance matrix (angstroms):
                    1          2          3          4          5
     1  C    0.000000
     2  C    1.248675   0.000000
     3  H    1.074176   2.311553   0.000000
     4  H    3.128430   1.926124   4.202515   0.000000
     5  O    2.482362   1.239708   3.529826   1.015928   0.000000
 Symmetry turned off by external request.
 Stoichiometry    C2H2O
 Rotational constants (GHZ):    639.0318232      9.8921609      9.7413660
 Leave Link  202 at Wed Mar  6 17:11:25 2019, MaxMem=    33554432 cpu:         0.0
 (Enter /home/proyectos/fulerenos/M3C-v2.0/M3C-deps_CCC/g09-AM64L-G09RevC.01/l301.exe)
 Standard basis: 6-311++G(3df,2p) (5D, 7F)
 Ernie: Thresh=  0.10000D-02 Tol=  0.10000D-05 Strict=F.
   137 basis functions,   198 primitive gaussians,   155 cartesian basis functions
    13 alpha electrons       10 beta electrons
       nuclear repulsion energy        58.4629680279 Hartrees.
 IExCor=  402 DFT=T Ex+Corr=B3LYP ExCW=0 ScaHFX=  0.200000
 ScaDFX=  0.800000  0.720000  1.000000  0.810000 ScalE2=  1.000000  1.000000
 IRadAn=      0 IRanWt=     -1 IRanGd=            0 ICorTp=0 IEmpDi=  4
 NAtoms=    5 NActive=    5 NUniq=    5 SFac= 1.00D+00 NAtFMM=   60 NAOKFM=F Big=F
 Integral buffers will be    131072 words long.
 Raffenetti 2 integral format.
 Two-electron integral symmetry is turned off.
 Leave Link  301 at Wed Mar  6 17:11:25 2019, MaxMem=    33554432 cpu:         0.1
 (Enter /home/proyectos/fulerenos/M3C-v2.0/M3C-deps_CCC/g09-AM64L-G09RevC.01/l302.exe)
 NPDir=0 NMtPBC=     1 NCelOv=     1 NCel=       1 NClECP=     1 NCelD=      1
         NCelK=      1 NCelE2=     1 NClLst=     1 CellRange=     0.0.
 One-electron integrals computed using PRISM.
 NBasis=   137 RedAO= T EigKep=  1.57D-05  NBF=   137
 NBsUse=   137 1.00D-06 EigRej= -1.00D+00 NBFU=   137
 Precomputing XC quadrature grid using
 IXCGrd= 4 IRadAn=           0 IRanWt=          -1 IRanGd=           0 AccXCQ= 0.00D+00.
 Generated NRdTot=       0 NPtTot=           0 NUsed=           0 NTot=          32
 NSgBfM=   155   155   155   155   155 MxSgAt=     5 MxSgA2=     5.
 Leave Link  302 at Wed Mar  6 17:11:25 2019, MaxMem=    33554432 cpu:         0.6
 (Enter /home/proyectos/fulerenos/M3C-v2.0/M3C-deps_CCC/g09-AM64L-G09RevC.01/l303.exe)
 DipDrv:  MaxL=1.
 Leave Link  303 at Wed Mar  6 17:11:25 2019, MaxMem=    33554432 cpu:         0.1
 (Enter /home/proyectos/fulerenos/M3C-v2.0/M3C-deps_CCC/g09-AM64L-G09RevC.01/l401.exe)
 Initial guess from the checkpoint file:  "/scratch/naguirre/gaussian/Gau-20467.chk"
 B after Tr=     0.035659    0.059420   -0.022848
         Rot=    0.999897   -0.005502   -0.001752   -0.013134 Ang=  -1.64 deg.
 Guess basis will be translated and rotated to current coordinates.
 JPrj=2 DoOrth=T DoCkMO=T.
 Initial guess <Sx>= 0.0000 <Sy>= 0.0000 <Sz>= 1.5000 <S**2>= 3.7547 S= 1.5012
 Generating alternative initial guess.
 ExpMin= 3.60D-02 ExpMax= 8.59D+03 ExpMxC= 1.30D+03 IAcc=3 IRadAn=         5 AccDes= 0.00D+00
 Harris functional with IExCor=  402 and IRadAn=       5 diagonalized for initial guess.
 HarFok:  IExCor=  402 AccDes= 0.00D+00 IRadAn=         5 IDoV= 1 UseB2=F ITyADJ=14
 ICtDFT=  3500011 ScaDFX=  1.000000  1.000000  1.000000  1.000000
 FoFCou: FMM=F IPFlag=           0 FMFlag=      100000 FMFlg1=           0
         NFxFlg=           0 DoJE=T BraDBF=F KetDBF=T FulRan=T
         wScrn=  0.000000 ICntrl=     500 IOpCl=  0 I1Cent=   200000004 NGrid=           0
         NMat0=    1 NMatS0=      1 NMatT0=    0 NMatD0=    1 NMtDS0=    0 NMtDT0=    0
 Symmetry not used in FoFCou.
 Harris En= -152.466051512386    
 Leave Link  401 at Wed Mar  6 17:11:27 2019, MaxMem=    33554432 cpu:         4.2
 (Enter /home/proyectos/fulerenos/M3C-v2.0/M3C-deps_CCC/g09-AM64L-G09RevC.01/l502.exe)
 UHF open shell SCF:
 Using DIIS extrapolation, IDIIS=  1040.
 Two-electron integral symmetry not used.
 IVT=       92495 IEndB=       92495 NGot=    33554432 MDV=    33502758
 LenX=    33502758 LenY=    33478292
 Requested convergence on RMS density matrix=1.00D-08 within 128 cycles.
 Requested convergence on MAX density matrix=1.00D-06.
 Requested convergence on             energy=1.00D-06.
 No special actions if energy rises.
 Fock matrices will be formed incrementally for  20 cycles.

 Cycle   1  Pass 1  IDiag  1:
 FoFJK:  IHMeth= 1 ICntrl=       0 DoSepK=F KAlg= 0 I1Cent=   0 FoldK=F
 IRaf= 990000000 NMat=   1 IRICut=       1 DoRegI=T DoRafI=F ISym2E= 0.
 FoFCou: FMM=F IPFlag=           0 FMFlag=      100000 FMFlg1=           0
         NFxFlg=           0 DoJE=F BraDBF=F KetDBF=F FulRan=T
         wScrn=  0.000000 ICntrl=       0 IOpCl=  1 I1Cent=           0 NGrid=           0
         NMat0=    1 NMatS0=      1 NMatT0=    0 NMatD0=    1 NMtDS0=    0 NMtDT0=    0
 Symmetry not used in FoFCou.
 E= -152.394238431151    
 DIIS: error= 4.23D-03 at cycle   1 NSaved=   1.
 NSaved= 1 IEnMin= 1 EnMin= -152.394238431151     IErMin= 1 ErrMin= 4.23D-03
 ErrMax= 4.23D-03  0.00D+00 EMaxC= 1.00D-01 BMatC= 2.36D-02 BMatP= 2.36D-02
 IDIUse=3 WtCom= 9.58D-01 WtEn= 4.23D-02
 Coeff-Com:  0.100D+01
 Coeff-En:   0.100D+01
 Coeff:      0.100D+01
 Gap=     0.386 Goal=   None    Shift=    0.000
 Gap=     0.402 Goal=   None    Shift=    0.000
 GapD=    0.386 DampG=1.000 DampE=1.000 DampFc=1.0000 IDamp=-1.
 RMSDP=4.99D-01 MaxDP=5.16D+01              OVMax= 3.04D-01

 Cycle   2  Pass 1  IDiag  1:
 RMSU=  8.48D-02    CP:  7.63D-01
 E= -152.407830337509     Delta-E=       -0.013591906358 Rises=F Damp=F
 DIIS: error= 5.36D-03 at cycle   2 NSaved=   2.
 NSaved= 2 IEnMin= 2 EnMin= -152.407830337509     IErMin= 1 ErrMin= 4.23D-03
 ErrMax= 5.36D-03  0.00D+00 EMaxC= 1.00D-01 BMatC= 9.53D-03 BMatP= 2.36D-02
 IDIUse=3 WtCom= 9.46D-01 WtEn= 5.36D-02
 Coeff-Com:  0.304D+00 0.696D+00
 Coeff-En:   0.000D+00 0.100D+01
 Coeff:      0.288D+00 0.712D+00
 Gap=     0.046 Goal=   None    Shift=    0.000
 Gap=     0.097 Goal=   None    Shift=    0.000
 RMSDP=7.16D-01 MaxDP=7.65D+01 DE=-1.36D-02 OVMax= 1.99D-01

 Cycle   3  Pass 1  IDiag  1:
 RMSU=  8.77D-02    CP:  1.10D+00  1.62D+00
 E= -152.407949352545     Delta-E=       -0.000119015036 Rises=F Damp=F
 DIIS: error= 5.63D-03 at cycle   3 NSaved=   3.
 NSaved= 3 IEnMin= 3 EnMin= -152.407949352545     IErMin= 1 ErrMin= 4.23D-03
 ErrMax= 5.63D-03  0.00D+00 EMaxC= 1.00D-01 BMatC= 9.86D-03 BMatP= 9.53D-03
 IDIUse=3 WtCom= 9.44D-01 WtEn= 5.63D-02
 Coeff-Com:  0.218D-01 0.496D+00 0.483D+00
 Coeff-En:   0.000D+00 0.493D+00 0.507D+00
 Coeff:      0.206D-01 0.495D+00 0.484D+00
 Gap=     0.045 Goal=   None    Shift=    0.000
 Gap=     0.099 Goal=   None    Shift=    0.000
 RMSDP=5.41D-01 MaxDP=5.68D+01 DE=-1.19D-04 OVMax= 1.19D-01

 Cycle   4  Pass 1  IDiag  1:
 RMSU=  1.66D-02    CP:  8.45D-01  1.45D+00  6.15D-01
 E= -152.411483436054     Delta-E=       -0.003534083509 Rises=F Damp=F
 DIIS: error= 1.65D-03 at cycle   4 NSaved=   4.
 NSaved= 4 IEnMin= 4 EnMin= -152.411483436054     IErMin= 4 ErrMin= 1.65D-03
 ErrMax= 1.65D-03  0.00D+00 EMaxC= 1.00D-01 BMatC= 9.59D-04 BMatP= 9.53D-03
 IDIUse=3 WtCom= 9.83D-01 WtEn= 1.65D-02
 Coeff-Com: -0.104D-01 0.199D+00 0.289D+00 0.522D+00
 Coeff-En:   0.000D+00 0.000D+00 0.000D+00 0.100D+01
 Coeff:     -0.103D-01 0.196D+00 0.284D+00 0.530D+00
 Gap=     0.046 Goal=   None    Shift=    0.000
 Gap=     0.098 Goal=   None    Shift=    0.000
 RMSDP=5.97D-02 MaxDP=5.55D+00 DE=-3.53D-03 OVMax= 1.54D-02

 Cycle   5  Pass 1  IDiag  1:
 RMSU=  3.55D-03    CP:  8.17D-01  1.55D+00  7.36D-01  1.51D+00
 E= -152.411729247871     Delta-E=       -0.000245811817 Rises=F Damp=F
 DIIS: error= 6.17D-04 at cycle   5 NSaved=   5.
 NSaved= 5 IEnMin= 5 EnMin= -152.411729247871     IErMin= 5 ErrMin= 6.17D-04
 ErrMax= 6.17D-04  0.00D+00 EMaxC= 1.00D-01 BMatC= 1.21D-04 BMatP= 9.59D-04
 IDIUse=3 WtCom= 9.94D-01 WtEn= 6.17D-03
 Coeff-Com: -0.688D-02 0.229D-01 0.976D-01 0.289D+00 0.598D+00
 Coeff-En:   0.000D+00 0.000D+00 0.000D+00 0.000D+00 0.100D+01
 Coeff:     -0.684D-02 0.228D-01 0.969D-01 0.287D+00 0.600D+00
 Gap=     0.046 Goal=   None    Shift=    0.000
 Gap=     0.098 Goal=   None    Shift=    0.000
 RMSDP=4.28D-02 MaxDP=3.98D+00 DE=-2.46D-04 OVMax= 8.80D-03

 Cycle   6  Pass 1  IDiag  1:
 RMSU=  5.83D-04    CP:  7.97D-01  1.61D+00  8.17D-01  1.89D+00  1.52D+00
 E= -152.411770280042     Delta-E=       -0.000041032170 Rises=F Damp=F
 DIIS: error= 2.24D-04 at cycle   6 NSaved=   6.
 NSaved= 6 IEnMin= 6 EnMin= -152.411770280042     IErMin= 6 ErrMin= 2.24D-04
 ErrMax= 2.24D-04  0.00D+00 EMaxC= 1.00D-01 BMatC= 1.54D-05 BMatP= 1.21D-04
 IDIUse=3 WtCom= 9.98D-01 WtEn= 2.24D-03
 Coeff-Com:  0.590D-03-0.476D-01-0.197D-01 0.150D-01 0.243D+00 0.809D+00
 Coeff-En:   0.000D+00 0.000D+00 0.000D+00 0.000D+00 0.000D+00 0.100D+01
 Coeff:      0.589D-03-0.475D-01-0.197D-01 0.149D-01 0.242D+00 0.809D+00
 Gap=     0.046 Goal=   None    Shift=    0.000
 Gap=     0.097 Goal=   None    Shift=    0.000
 RMSDP=5.36D-02 MaxDP=5.30D+00 DE=-4.10D-05 OVMax= 6.50D-03

 Cycle   7  Pass 1  IDiag  1:
 RMSU=  5.21D-04    CP:  7.72D-01  1.65D+00  8.66D-01  2.21D+00  1.95D+00
                    CP:  1.68D+00
 E= -152.411779810971     Delta-E=       -0.000009530930 Rises=F Damp=F
 DIIS: error= 1.11D-04 at cycle   7 NSaved=   7.
 NSaved= 7 IEnMin= 7 EnMin= -152.411779810971     IErMin= 7 ErrMin= 1.11D-04
 ErrMax= 1.11D-04  0.00D+00 EMaxC= 1.00D-01 BMatC= 5.51D-06 BMatP= 1.54D-05
 IDIUse=3 WtCom= 9.99D-01 WtEn= 1.11D-03
 Coeff-Com:  0.805D-03-0.317D-01-0.209D-01-0.236D-01 0.551D-01 0.493D+00
 Coeff-Com:  0.527D+00
 Coeff-En:   0.000D+00 0.000D+00 0.000D+00 0.000D+00 0.000D+00 0.000D+00
 Coeff-En:   0.100D+01
 Coeff:      0.804D-03-0.317D-01-0.209D-01-0.236D-01 0.550D-01 0.493D+00
 Coeff:      0.527D+00
 Gap=     0.046 Goal=   None    Shift=    0.000
 Gap=     0.097 Goal=   None    Shift=    0.000
[...]
 NSaved= 2 IEnMin= 2 EnMin= -152.434786376687     IErMin= 2 ErrMin= 1.30D-04
 ErrMax= 1.30D-04  0.00D+00 EMaxC= 1.00D-01 BMatC= 5.39D-06 BMatP= 2.92D-05
 IDIUse=3 WtCom= 9.99D-01 WtEn= 1.30D-03
 Coeff-Com:  0.169D+00 0.831D+00
 Coeff-En:   0.000D+00 0.100D+01
 Coeff:      0.169D+00 0.831D+00
 Gap=     0.051 Goal=   None    Shift=    0.000
 Gap=     0.094 Goal=   None    Shift=    0.000
 RMSDP=2.52D-03 MaxDP=2.40D-01 DE=-1.97D-05 OVMax= 1.74D-03

 Cycle   3  Pass 1  IDiag  1:
 RMSU=  5.58D-04    CP:  9.77D-01  1.23D+00
 E= -152.434788021541     Delta-E=       -0.000001644854 Rises=F Damp=F
 DIIS: error= 6.52D-05 at cycle   3 NSaved=   3.
 NSaved= 3 IEnMin= 3 EnMin= -152.434788021541     IErMin= 3 ErrMin= 6.52D-05
 ErrMax= 6.52D-05  0.00D+00 EMaxC= 1.00D-01 BMatC= 2.07D-06 BMatP= 5.39D-06
 IDIUse=1 WtCom= 1.00D+00 WtEn= 0.00D+00
 Coeff-Com: -0.571D-02 0.366D+00 0.639D+00
 Coeff:     -0.571D-02 0.366D+00 0.639D+00
 Gap=     0.051 Goal=   None    Shift=    0.000
 Gap=     0.094 Goal=   None    Shift=    0.000
 RMSDP=2.99D-03 MaxDP=3.21D-01 DE=-1.64D-06 OVMax= 1.30D-03

 Cycle   4  Pass 1  IDiag  1:
 RMSU=  1.29D-04    CP:  9.74D-01  1.37D+00  1.31D+00
 E= -152.434788623160     Delta-E=       -0.000000601619 Rises=F Damp=F
 DIIS: error= 3.60D-05 at cycle   4 NSaved=   4.
 NSaved= 4 IEnMin= 4 EnMin= -152.434788623160     IErMin= 4 ErrMin= 3.60D-05
 ErrMax= 3.60D-05  0.00D+00 EMaxC= 1.00D-01 BMatC= 5.21D-07 BMatP= 2.07D-06
 IDIUse=1 WtCom= 1.00D+00 WtEn= 0.00D+00
 Coeff-Com: -0.124D-01 0.119D+00 0.368D+00 0.525D+00
 Coeff:     -0.124D-01 0.119D+00 0.368D+00 0.525D+00
 Gap=     0.051 Goal=   None    Shift=    0.000
 Gap=     0.094 Goal=   None    Shift=    0.000
 RMSDP=9.66D-04 MaxDP=1.00D-01 DE=-6.02D-07 OVMax= 4.00D-04

 Cycle   5  Pass 1  IDiag  1:
 RMSU=  2.55D-05    CP:  9.73D-01  1.43D+00  1.50D+00  1.45D+00
 E= -152.434788739021     Delta-E=       -0.000000115860 Rises=F Damp=F
 DIIS: error= 1.71D-05 at cycle   5 NSaved=   5.
 NSaved= 5 IEnMin= 5 EnMin= -152.434788739021     IErMin= 5 ErrMin= 1.71D-05
 ErrMax= 1.71D-05  0.00D+00 EMaxC= 1.00D-01 BMatC= 8.46D-08 BMatP= 5.21D-07
 IDIUse=1 WtCom= 1.00D+00 WtEn= 0.00D+00
 Coeff-Com: -0.510D-02-0.105D-01 0.966D-01 0.311D+00 0.607D+00
 Coeff:     -0.510D-02-0.105D-01 0.966D-01 0.311D+00 0.607D+00
 Gap=     0.051 Goal=   None    Shift=    0.000
 Gap=     0.094 Goal=   None    Shift=    0.000
 RMSDP=6.12D-04 MaxDP=6.00D-02 DE=-1.16D-07 OVMax= 2.62D-04

 Cycle   6  Pass 1  IDiag  1:
 RMSU=  1.29D-05    CP:  9.72D-01  1.48D+00  1.69D+00  1.73D+00  1.87D+00
 E= -152.434788767036     Delta-E=       -0.000000028015 Rises=F Damp=F
 DIIS: error= 9.75D-06 at cycle   6 NSaved=   6.
 NSaved= 6 IEnMin= 6 EnMin= -152.434788767036     IErMin= 6 ErrMin= 9.75D-06
 ErrMax= 9.75D-06  0.00D+00 EMaxC= 1.00D-01 BMatC= 2.35D-08 BMatP= 8.46D-08
 IDIUse=1 WtCom= 1.00D+00 WtEn= 0.00D+00
 Coeff-Com:  0.539D-03-0.394D-01-0.149D-01 0.720D-01 0.393D+00 0.588D+00
 Coeff:      0.539D-03-0.394D-01-0.149D-01 0.720D-01 0.393D+00 0.588D+00
 Gap=     0.051 Goal=   None    Shift=    0.000
 Gap=     0.094 Goal=   None    Shift=    0.000
 RMSDP=4.94D-04 MaxDP=5.04D-02 DE=-2.80D-08 OVMax= 1.73D-04

 Cycle   7  Pass 1  IDiag  1:
 RMSU=  8.99D-06    CP:  9.72D-01  1.50D+00  1.80D+00  1.94D+00  2.04D+00
                    CP:  2.05D+00
 E= -152.434788775082     Delta-E=       -0.000000008046 Rises=F Damp=F
 DIIS: error= 5.24D-06 at cycle   7 NSaved=   7.
 NSaved= 7 IEnMin= 7 EnMin= -152.434788775082     IErMin= 7 ErrMin= 5.24D-06
 ErrMax= 5.24D-06  0.00D+00 EMaxC= 1.00D-01 BMatC= 9.47D-09 BMatP= 2.35D-08
 IDIUse=1 WtCom= 1.00D+00 WtEn= 0.00D+00
 Coeff-Com:  0.164D-02-0.311D-01-0.319D-01-0.131D-01 0.141D+00 0.443D+00
 Coeff-Com:  0.491D+00
 Coeff:      0.164D-02-0.311D-01-0.319D-01-0.131D-01 0.141D+00 0.443D+00
 Coeff:      0.491D+00
 Gap=     0.051 Goal=   None    Shift=    0.000
 Gap=     0.094 Goal=   None    Shift=    0.000
 RMSDP=1.74D-04 MaxDP=1.75D-02 DE=-8.05D-09 OVMax= 8.30D-05

 Cycle   8  Pass 1  IDiag  1:
 RMSU=  3.41D-06    CP:  9.71D-01  1.51D+00  1.84D+00  2.05D+00  2.16D+00
                    CP:  2.40D+00  1.24D+00
 E= -152.434788778360     Delta-E=       -0.000000003278 Rises=F Damp=F
 DIIS: error= 1.36D-06 at cycle   8 NSaved=   8.
 NSaved= 8 IEnMin= 8 EnMin= -152.434788778360     IErMin= 8 ErrMin= 1.36D-06
 ErrMax= 1.36D-06  0.00D+00 EMaxC= 1.00D-01 BMatC= 8.43D-10 BMatP= 9.47D-09
 IDIUse=1 WtCom= 1.00D+00 WtEn= 0.00D+00
 Coeff-Com:  0.681D-03-0.684D-02-0.882D-02-0.203D-01-0.348D-01 0.893D-01
 Coeff-Com:  0.261D+00 0.719D+00
 Coeff:      0.681D-03-0.684D-02-0.882D-02-0.203D-01-0.348D-01 0.893D-01
 Coeff:      0.261D+00 0.719D+00
 Gap=     0.051 Goal=   None    Shift=    0.000
 Gap=     0.094 Goal=   None    Shift=    0.000
 RMSDP=8.33D-05 MaxDP=7.73D-03 DE=-3.28D-09 OVMax= 4.42D-05

 Cycle   9  Pass 1  IDiag  1:
 RMSU=  8.15D-07    CP:  9.71D-01  1.52D+00  1.87D+00  2.11D+00  2.26D+00
                    CP:  2.94D+00  1.66D+00  1.49D+00
 E= -152.434788778826     Delta-E=       -0.000000000466 Rises=F Damp=F
 DIIS: error= 2.67D-07 at cycle   9 NSaved=   9.
 NSaved= 9 IEnMin= 9 EnMin= -152.434788778826     IErMin= 9 ErrMin= 2.67D-07
 ErrMax= 2.67D-07  0.00D+00 EMaxC= 1.00D-01 BMatC= 3.63D-11 BMatP= 8.43D-10
 IDIUse=1 WtCom= 1.00D+00 WtEn= 0.00D+00
 Coeff-Com: -0.188D-03 0.445D-02 0.516D-02 0.632D-03-0.289D-01-0.605D-01
 Coeff-Com: -0.328D-01-0.257D-01 0.114D+01
 Coeff:     -0.188D-03 0.445D-02 0.516D-02 0.632D-03-0.289D-01-0.605D-01
 Coeff:     -0.328D-01-0.257D-01 0.114D+01
 Gap=     0.051 Goal=   None    Shift=    0.000
 Gap=     0.094 Goal=   None    Shift=    0.000
 RMSDP=1.86D-05 MaxDP=1.34D-03 DE=-4.66D-10 OVMax= 2.69D-05

 Cycle  10  Pass 1  IDiag  1:
 RMSU=  3.87D-06    CP:  9.71D-01  1.52D+00  1.88D+00  2.14D+00  2.25D+00
                    CP:  3.00D+00  2.00D+00  2.10D+00  1.98D+00
 E= -152.434788778904     Delta-E=       -0.000000000078 Rises=F Damp=F
 DIIS: error= 9.65D-08 at cycle  10 NSaved=  10.
 NSaved=10 IEnMin=10 EnMin= -152.434788778904     IErMin=10 ErrMin= 9.65D-08
 ErrMax= 9.65D-08  0.00D+00 EMaxC= 1.00D-01 BMatC= 4.91D-12 BMatP= 3.63D-11
 IDIUse=1 WtCom= 1.00D+00 WtEn= 0.00D+00
 Coeff-Com: -0.325D-04-0.148D-03-0.220D-03 0.220D-02 0.992D-02 0.419D-02
 Coeff-Com: -0.188D-01-0.117D+00-0.202D+00 0.132D+01
 Coeff:     -0.325D-04-0.148D-03-0.220D-03 0.220D-02 0.992D-02 0.419D-02
 Coeff:     -0.188D-01-0.117D+00-0.202D+00 0.132D+01
 Gap=     0.051 Goal=   None    Shift=    0.000
 Gap=     0.094 Goal=   None    Shift=    0.000
 RMSDP=9.29D-06 MaxDP=1.04D-03 DE=-7.80D-11 OVMax= 1.33D-05

 Cycle  11  Pass 1  IDiag  1:
 RMSU=  2.36D-07    CP:  9.71D-01  1.52D+00  1.88D+00  2.14D+00  2.23D+00
                    CP:  3.00D+00  2.15D+00  2.46D+00  2.70D+00  1.46D+00
 E= -152.434788778915     Delta-E=       -0.000000000012 Rises=F Damp=F
 DIIS: error= 5.71D-08 at cycle  11 NSaved=  11.
 NSaved=11 IEnMin=11 EnMin= -152.434788778915     IErMin=11 ErrMin= 5.71D-08
 ErrMax= 5.71D-08  0.00D+00 EMaxC= 1.00D-01 BMatC= 8.20D-13 BMatP= 4.91D-12
 IDIUse=1 WtCom= 1.00D+00 WtEn= 0.00D+00
 Coeff-Com:  0.177D-04-0.549D-03-0.263D-03 0.303D-04 0.172D-02 0.617D-02
 Coeff-Com:  0.823D-02-0.131D-03-0.107D+00-0.132D-01 0.111D+01
 Coeff:      0.177D-04-0.549D-03-0.263D-03 0.303D-04 0.172D-02 0.617D-02
 Coeff:      0.823D-02-0.131D-03-0.107D+00-0.132D-01 0.111D+01
 Gap=     0.051 Goal=   None    Shift=    0.000
 Gap=     0.094 Goal=   None    Shift=    0.000
 RMSDP=5.16D-06 MaxDP=5.56D-04 DE=-1.17D-11 OVMax= 2.99D-06

 Cycle  12  Pass 1  IDiag  1:
 RMSU=  8.34D-08    CP:  9.71D-01  1.52D+00  1.87D+00  2.14D+00  2.21D+00
                    CP:  3.00D+00  2.18D+00  2.53D+00  2.92D+00  1.53D+00
                    CP:  1.97D+00
 E= -152.434788778927     Delta-E=       -0.000000000012 Rises=F Damp=F
 DIIS: error= 2.53D-08 at cycle  12 NSaved=  12.
 NSaved=12 IEnMin=12 EnMin= -152.434788778927     IErMin=12 ErrMin= 2.53D-08
 ErrMax= 2.53D-08  0.00D+00 EMaxC= 1.00D-01 BMatC= 1.47D-13 BMatP= 8.20D-13
 IDIUse=1 WtCom= 1.00D+00 WtEn= 0.00D+00
 Coeff-Com:  0.441D-05-0.204D-04 0.431D-04-0.140D-03-0.121D-02 0.203D-03
 Coeff-Com:  0.208D-03 0.101D-01 0.213D-01-0.123D+00-0.166D-01 0.111D+01
 Coeff:      0.441D-05-0.204D-04 0.431D-04-0.140D-03-0.121D-02 0.203D-03
 Coeff:      0.208D-03 0.101D-01 0.213D-01-0.123D+00-0.166D-01 0.111D+01
 Gap=     0.051 Goal=   None    Shift=    0.000
 Gap=     0.094 Goal=   None    Shift=    0.000
 RMSDP=1.97D-06 MaxDP=2.08D-04 DE=-1.20D-11 OVMax= 1.32D-06

 Cycle  13  Pass 1  IDiag  1:
 RMSU=  2.16D-08    CP:  9.71D-01  1.52D+00  1.87D+00  2.14D+00  2.21D+00
                    CP:  3.00D+00  2.19D+00  2.55D+00  2.98D+00  1.54D+00
                    CP:  2.50D+00  1.69D+00
 E= -152.434788778917     Delta-E=        0.000000000010 Rises=F Damp=F
 DIIS: error= 2.21D-08 at cycle  13 NSaved=  13.
 NSaved=13 IEnMin=12 EnMin= -152.434788778927     IErMin=13 ErrMin= 2.21D-08
 ErrMax= 2.21D-08  0.00D+00 EMaxC= 1.00D-01 BMatC= 4.97D-14 BMatP= 1.47D-13
 IDIUse=1 WtCom= 1.00D+00 WtEn= 0.00D+00
 Coeff-Com: -0.323D-05 0.839D-04 0.313D-04 0.172D-04 0.703D-04-0.103D-02
 Coeff-Com: -0.611D-03-0.312D-02 0.125D-01 0.340D-01-0.179D+00-0.185D+00
 Coeff-Com:  0.132D+01
 Coeff:     -0.323D-05 0.839D-04 0.313D-04 0.172D-04 0.703D-04-0.103D-02
 Coeff:     -0.611D-03-0.312D-02 0.125D-01 0.340D-01-0.179D+00-0.185D+00
 Coeff:      0.132D+01
 Gap=     0.051 Goal=   None    Shift=    0.000
 Gap=     0.094 Goal=   None    Shift=    0.000
 RMSDP=6.20D-07 MaxDP=6.34D-05 DE= 1.01D-11 OVMax= 1.40D-06

 Cycle  14  Pass 1  IDiag  1:
 RMSU=  1.41D-08    CP:  9.71D-01  1.52D+00  1.87D+00  2.14D+00  2.21D+00
                    CP:  3.00D+00  2.19D+00  2.54D+00  2.99D+00  1.55D+00
                    CP:  2.75D+00  2.18D+00  2.15D+00
 E= -152.434788778919     Delta-E=       -0.000000000002 Rises=F Damp=F
 DIIS: error= 1.88D-08 at cycle  14 NSaved=  14.
 NSaved=14 IEnMin=12 EnMin= -152.434788778927     IErMin=14 ErrMin= 1.88D-08
 ErrMax= 1.88D-08  0.00D+00 EMaxC= 1.00D-01 BMatC= 2.97D-14 BMatP= 4.97D-14
 IDIUse=1 WtCom= 1.00D+00 WtEn= 0.00D+00
 Coeff-Com: -0.119D-05-0.428D-04-0.523D-04 0.664D-04 0.657D-03 0.703D-03
 Coeff-Com:  0.146D-03-0.411D-02-0.244D-01 0.519D-01 0.147D+00-0.603D+00
 Coeff-Com: -0.914D+00 0.234D+01
 Coeff:     -0.119D-05-0.428D-04-0.523D-04 0.664D-04 0.657D-03 0.703D-03
 Coeff:      0.146D-03-0.411D-02-0.244D-01 0.519D-01 0.147D+00-0.603D+00
 Coeff:     -0.914D+00 0.234D+01
 Gap=     0.051 Goal=   None    Shift=    0.000
 Gap=     0.094 Goal=   None    Shift=    0.000
 RMSDP=3.54D-07 MaxDP=3.78D-05 DE=-1.93D-12 OVMax= 2.75D-06

 Cycle  15  Pass 1  IDiag  1:
 RMSU=  3.56D-08    CP:  9.71D-01  1.52D+00  1.87D+00  2.14D+00  2.21D+00
                    CP:  3.00D+00  2.19D+00  2.55D+00  3.00D+00  1.56D+00
                    CP:  2.92D+00  2.55D+00  3.00D+00  3.00D+00
 E= -152.434788778921     Delta-E=       -0.000000000002 Rises=F Damp=F
 DIIS: error= 1.23D-08 at cycle  15 NSaved=  15.
 NSaved=15 IEnMin=12 EnMin= -152.434788778927     IErMin=15 ErrMin= 1.23D-08
 ErrMax= 1.23D-08  0.00D+00 EMaxC= 1.00D-01 BMatC= 1.38D-14 BMatP= 2.97D-14
 IDIUse=1 WtCom= 1.00D+00 WtEn= 0.00D+00
 Coeff-Com:  0.334D-05-0.663D-04-0.988D-05-0.257D-04-0.246D-03 0.703D-03
 Coeff-Com:  0.556D-03 0.466D-02-0.476D-02-0.493D-01 0.162D+00 0.210D+00
 Coeff-Com: -0.847D+00-0.686D+00 0.221D+01
 Coeff:      0.334D-05-0.663D-04-0.988D-05-0.257D-04-0.246D-03 0.703D-03
 Coeff:      0.556D-03 0.466D-02-0.476D-02-0.493D-01 0.162D+00 0.210D+00
 Coeff:     -0.847D+00-0.686D+00 0.221D+01
 Gap=     0.051 Goal=   None    Shift=    0.000
 Gap=     0.094 Goal=   None    Shift=    0.000
 RMSDP=1.45D-07 MaxDP=9.28D-06 DE=-2.25D-12 OVMax= 3.72D-06

 Cycle  16  Pass 1  IDiag  1:
 RMSU=  4.45D-08    CP:  9.71D-01  1.52D+00  1.87D+00  2.14D+00  2.21D+00
                    CP:  3.00D+00  2.20D+00  2.55D+00  3.00D+00  1.56D+00
                    CP:  2.91D+00  2.61D+00  3.00D+00  3.00D+00  3.00D+00
 E= -152.434788778922     Delta-E=       -0.000000000000 Rises=F Damp=F
 DIIS: error= 3.57D-09 at cycle  16 NSaved=  16.
 NSaved=16 IEnMin=12 EnMin= -152.434788778927     IErMin=16 ErrMin= 3.57D-09
 ErrMax= 3.57D-09  0.00D+00 EMaxC= 1.00D-01 BMatC= 2.79D-15 BMatP= 1.38D-14
 IDIUse=1 WtCom= 1.00D+00 WtEn= 0.00D+00
 Large coefficients: NSaved= 16 BigCof=    0.00 CofMax=   10.00 Det=-5.31D-16
 Inversion failed.  Reducing to 15 matrices.
 Coeff-Com:  0.204D-04 0.610D-05-0.232D-04-0.297D-04-0.397D-03-0.104D-03
 Coeff-Com:  0.818D-03 0.639D-02-0.619D-02-0.646D-01 0.117D+00 0.363D+00
 Coeff-Com: -0.427D+00-0.449D+00 0.146D+01
 Coeff:      0.204D-04 0.610D-05-0.232D-04-0.297D-04-0.397D-03-0.104D-03
 Coeff:      0.818D-03 0.639D-02-0.619D-02-0.646D-01 0.117D+00 0.363D+00
 Coeff:     -0.427D+00-0.449D+00 0.146D+01
 Gap=     0.051 Goal=   None    Shift=    0.000
 Gap=     0.094 Goal=   None    Shift=    0.000
 RMSDP=2.14D-07 MaxDP=2.27D-05 DE=-3.13D-13 OVMax= 1.21D-06

 Cycle  17  Pass 1  IDiag  1:
 RMSU=  1.93D-08    CP:  9.71D-01  1.52D+00  1.87D+00  2.14D+00  2.21D+00
                    CP:  3.00D+00  2.19D+00  2.55D+00  3.00D+00  1.56D+00
                    CP:  2.84D+00  2.48D+00  3.00D+00  3.00D+00  3.00D+00
                    CP:  1.72D+00
 E= -152.434788778921     Delta-E=        0.000000000001 Rises=F Damp=F
 DIIS: error= 7.71D-10 at cycle  17 NSaved=  16.
 NSaved=16 IEnMin=11 EnMin= -152.434788778927     IErMin=16 ErrMin= 7.71D-10
 ErrMax= 7.71D-10  0.00D+00 EMaxC= 1.00D-01 BMatC= 3.50D-16 BMatP= 2.79D-15
 IDIUse=1 WtCom= 1.00D+00 WtEn= 0.00D+00
 Large coefficients: NSaved= 16 BigCof=    0.00 CofMax=   10.00 Det=-2.01D-16
 Inversion failed.  Reducing to 15 matrices.
 Coeff-Com: -0.101D-04 0.926D-05 0.674D-04 0.753D-04-0.695D-04-0.549D-03
 Coeff-Com: -0.198D-02 0.778D-02-0.574D-02-0.362D-01-0.895D-02 0.213D+00
 Coeff-Com: -0.196D+00-0.379D+00 0.141D+01
 Coeff:     -0.101D-04 0.926D-05 0.674D-04 0.753D-04-0.695D-04-0.549D-03
 Coeff:     -0.198D-02 0.778D-02-0.574D-02-0.362D-01-0.895D-02 0.213D+00
 Coeff:     -0.196D+00-0.379D+00 0.141D+01
 Gap=     0.051 Goal=   None    Shift=    0.000
 Gap=     0.094 Goal=   None    Shift=    0.000
 RMSDP=8.43D-08 MaxDP=9.57D-06 DE= 9.95D-13 OVMax= 2.54D-07

 Cycle  18  Pass 1  IDiag  1:
 RMSU=  1.10D-09    CP:  9.71D-01  1.52D+00  1.87D+00  2.14D+00  2.21D+00
                    CP:  3.00D+00  2.19D+00  2.55D+00  3.00D+00  1.55D+00
                    CP:  2.82D+00  2.45D+00  3.00D+00  3.00D+00  3.00D+00
                    CP:  1.88D+00  1.22D+00
 E= -152.434788778918     Delta-E=        0.000000000003 Rises=F Damp=F
 DIIS: error= 3.69D-10 at cycle  18 NSaved=  16.
 NSaved=16 IEnMin=10 EnMin= -152.434788778927     IErMin=16 ErrMin= 3.69D-10
 ErrMax= 3.69D-10  0.00D+00 EMaxC= 1.00D-01 BMatC= 4.75D-17 BMatP= 3.50D-16
 IDIUse=1 WtCom= 1.00D+00 WtEn= 0.00D+00
 Large coefficients: NSaved= 16 BigCof=    0.00 CofMax=   10.00 Det=-6.51D-17
 Inversion failed.  Reducing to 15 matrices.
 Coeff-Com:  0.492D-05 0.184D-05 0.338D-04-0.385D-04-0.158D-03-0.558D-03
 Coeff-Com:  0.164D-02 0.441D-02-0.160D-01-0.475D-01 0.919D-01 0.213D-01
 Coeff-Com: -0.252D+00 0.179D+00 0.102D+01
 Coeff:      0.492D-05 0.184D-05 0.338D-04-0.385D-04-0.158D-03-0.558D-03
 Coeff:      0.164D-02 0.441D-02-0.160D-01-0.475D-01 0.919D-01 0.213D-01
 Coeff:     -0.252D+00 0.179D+00 0.102D+01
 Gap=     0.051 Goal=   None    Shift=    0.000
 Gap=     0.094 Goal=   None    Shift=    0.000
 RMSDP=1.75D-08 MaxDP=1.88D-06 DE= 2.76D-12 OVMax= 3.58D-08

 Cycle  19  Pass 1  IDiag  1:
 RMSU=  3.12D-10    CP:  9.71D-01  1.52D+00  1.87D+00  2.14D+00  2.21D+00
                    CP:  3.00D+00  2.19D+00  2.55D+00  3.00D+00  1.55D+00
                    CP:  2.82D+00  2.45D+00  3.00D+00  3.00D+00  3.00D+00
                    CP:  1.90D+00  1.27D+00  1.12D+00
 E= -152.434788778915     Delta-E=        0.000000000003 Rises=F Damp=F
 DIIS: error= 1.20D-10 at cycle  19 NSaved=  16.
 NSaved=16 IEnMin= 9 EnMin= -152.434788778927     IErMin=16 ErrMin= 1.20D-10
 ErrMax= 1.20D-10  0.00D+00 EMaxC= 1.00D-01 BMatC= 7.81D-18 BMatP= 4.75D-17
 IDIUse=1 WtCom= 1.00D+00 WtEn= 0.00D+00
 Large coefficients: NSaved= 16 BigCof=    0.00 CofMax=   10.00 Det=-2.62D-17
 Inversion failed.  Reducing to 15 matrices.
 Coeff-Com:  0.365D-05-0.312D-05-0.124D-04-0.504D-04 0.410D-04 0.295D-03
 Coeff-Com: -0.329D-03-0.207D-02-0.909D-04-0.363D-02 0.110D-01 0.169D-01
 Coeff-Com: -0.175D+00 0.170D+00 0.982D+00
 Coeff:      0.365D-05-0.312D-05-0.124D-04-0.504D-04 0.410D-04 0.295D-03
 Coeff:     -0.329D-03-0.207D-02-0.909D-04-0.363D-02 0.110D-01 0.169D-01
 Coeff:     -0.175D+00 0.170D+00 0.982D+00
 Gap=     0.051 Goal=   None    Shift=    0.000
 Gap=     0.094 Goal=   None    Shift=    0.000
 RMSDP=3.85D-09 MaxDP=2.16D-07 DE= 3.15D-12 OVMax= 1.45D-08

 SCF Done:  E(UB3LYP) =  -152.434788779     A.U. after   19 cycles
            NFock= 19  Conv=0.38D-08     -V/T= 2.0043
 <Sx>= 0.0000 <Sy>= 0.0000 <Sz>= 1.5000 <S**2>= 3.7613 S= 1.5028
 <L.S>= 0.000000000000E+00
 KE= 1.517776245935D+02 PE=-4.717300983697D+02 EE= 1.113173942336D+02
 Annihilation of the first spin contaminant:
 S**2 before annihilation     3.7613,   after     3.7500
 Leave Link  502 at Wed Mar  6 17:19:31 2019, MaxMem=    33554432 cpu:       173.9
 (Enter /home/proyectos/fulerenos/M3C-v2.0/M3C-deps_CCC/g09-AM64L-G09RevC.01/l701.exe)
 Compute integral first derivatives.
 ... and contract with generalized density number  0.
 Leave Link  701 at Wed Mar  6 17:19:31 2019, MaxMem=    33554432 cpu:         0.6
 (Enter /home/proyectos/fulerenos/M3C-v2.0/M3C-deps_CCC/g09-AM64L-G09RevC.01/l702.exe)
 L702 exits ... SP integral derivatives will be done elsewhere.
 Leave Link  702 at Wed Mar  6 17:19:32 2019, MaxMem=    33554432 cpu:         0.0
 (Enter /home/proyectos/fulerenos/M3C-v2.0/M3C-deps_CCC/g09-AM64L-G09RevC.01/l703.exe)
 Compute integral first derivatives, UseDBF=F ICtDFT=           0.
 Integral derivatives from FoFJK, PRISM(SPDF).
 Calling FoFJK, ICntrl=      2127 FMM=F ISym2X=0 I1Cent= 0 IOpClX= 1 NMat=1 NMatS=1 NMatT=0.
 FoFJK:  IHMeth= 1 ICntrl=    2127 DoSepK=F KAlg= 0 I1Cent=   0 FoldK=F
 IRaf=         0 NMat=   1 IRICut=       1 DoRegI=T DoRafI=F ISym2E= 0.
 FoFCou: FMM=F IPFlag=           0 FMFlag=      100000 FMFlg1=         800
         NFxFlg=           0 DoJE=F BraDBF=F KetDBF=F FulRan=T
         wScrn=  0.000000 ICntrl=    2127 IOpCl=  1 I1Cent=           0 NGrid=           0
         NMat0=    1 NMatS0=      1 NMatT0=    0 NMatD0=    1 NMtDS0=    0 NMtDT0=    0
 Symmetry not used in FoFCou.
 Leave Link  703 at Wed Mar  6 17:19:44 2019, MaxMem=    33554432 cpu:        23.9
 (Enter /home/proyectos/fulerenos/M3C-v2.0/M3C-deps_CCC/g09-AM64L-G09RevC.01/l716.exe)
 Dipole        =-3.18627562D+00 7.04480629D-02 1.74145276D+00
 -------------------------------------------------------------------
 Center     Atomic                   Forces (Hartrees/Bohr)
 Number     Number              X              Y              Z
 -------------------------------------------------------------------
      1        6          -0.065184596   -0.000174788    0.027401140
      2        6           0.014117601   -0.002897792   -0.005471865
      3        1           0.013893400   -0.004251108   -0.005268185
      4        1          -0.017397898    0.022726155    0.004340476
      5        8           0.054571492   -0.015402467   -0.021001566
 -------------------------------------------------------------------
 Cartesian Forces:  Max     0.065184596 RMS     0.025782082
 Leave Link  716 at Wed Mar  6 17:19:44 2019, MaxMem=    33554432 cpu:         0.1
 (Enter /home/proyectos/fulerenos/M3C-v2.0/M3C-deps_CCC/g09-AM64L-G09RevC.01/l103.exe)

 GradGradGradGradGradGradGradGradGradGradGradGradGradGradGradGradGradGrad
 Berny optimization.
 Using GEDIIS/GDIIS optimizer.
 Linear angle in Tors.
 Error termination via Lnk1e in /home/proyectos/fulerenos/M3C-v2.0/M3C-deps_CCC/g09-AM64L-G09RevC.01/l103.exe at Wed Mar  6 17:19:44 2019.
 Job cpu time:       0 days  0 hours 20 minutes 31.3 seconds.
 File lengths (MBytes):  RWF=     22 Int=      0 D2E=      0 Chk=      3 Scr=      1
