 Entering Gaussian System, Link 0=/home/proyectos/fulerenos/M3C-v2.0/M3C-deps_CCC/g09-AM64L-G09RevC.01/g09
 Initial command:
 /home/proyectos/fulerenos/M3C-v2.0/M3C-deps_CCC/g09-AM64L-G09RevC.01/l1.exe "/scratch/naguirre/gaussian/Gau-84721.inp" -scrdir="/scratch/naguirre/gaussian/"
 Entering Link 1 = /home/proyectos/fulerenos/M3C-v2.0/M3C-deps_CCC/g09-AM64L-G09RevC.01/l1.exe PID=     84736.
  
 Copyright (c) 1988,1990,1992,1993,1995,1998,2003,2009,2015,
            Gaussian, Inc.  All Rights Reserved.
  
 This is part of the Gaussian(R) 09 program.  It is based on
 the Gaussian(R) 03 system (copyright 2003, Gaussian, Inc.),
 the Gaussian(R) 98 system (copyright 1998, Gaussian, Inc.),
 the Gaussian(R) 94 system (copyright 1995, Gaussian, Inc.),
 the Gaussian 92(TM) system (copyright 1992, Gaussian, Inc.),
 the Gaussian 90(TM) system (copyright 1990, Gaussian, Inc.),
 the Gaussian 88(TM) system (copyright 1988, Gaussian, Inc.),
 the Gaussian 86(TM) system (copyright 1986, Carnegie Mellon
 University), and the Gaussian 82(TM) system (copyright 1983,
 Carnegie Mellon University). Gaussian is a federally registered
 trademark of Gaussian, Inc.
  
 This software contains proprietary and confidential information,
 including trade secrets, belonging to Gaussian, Inc.
  
 This software is provided under written license and may be
 used, copied, transmitted, or stored only in accord with that
 written license.
  
 The following legend is applicable only to US Government
 contracts under FAR:
  
                    RESTRICTED RIGHTS LEGEND
  
 Use, reproduction and disclosure by the US Government is
 subject to restrictions as set forth in subparagraphs (a)
 and (c) of the Commercial Computer Software - Restricted
 Rights clause in FAR 52.227-19.
  
 Gaussian, Inc.
 340 Quinnipiac St., Bldg. 40, Wallingford CT 06492
  
  
 ---------------------------------------------------------------
 Warning -- This program may not be used in any manner that
 competes with the business of Gaussian, Inc. or will provide
 assistance to any competitor of Gaussian, Inc.  The licensee
 of this program is prohibited from giving any competitor of
 Gaussian, Inc. access to this program.  By using this program,
 the user acknowledges that Gaussian, Inc. is engaged in the
 business of creating and licensing software in the field of
 computational chemistry and represents and warrants to the
 licensee that it is not a competitor of Gaussian, Inc. and that
 it will not use this program in any manner prohibited above.
 ---------------------------------------------------------------
  

 Cite this work as:
 Gaussian 09, Revision E.01,
 M. J. Frisch, G. W. Trucks, H. B. Schlegel, G. E. Scuseria, 
 M. A. Robb, J. R. Cheeseman, G. Scalmani, V. Barone, B. Mennucci, 
 G. A. Petersson, H. Nakatsuji, M. Caricato, X. Li, H. P. Hratchian, 
 A. F. Izmaylov, J. Bloino, G. Zheng, J. L. Sonnenberg, M. Hada, 
 M. Ehara, K. Toyota, R. Fukuda, J. Hasegawa, M. Ishida, T. Nakajima, 
 Y. Honda, O. Kitao, H. Nakai, T. Vreven, J. A. Montgomery, Jr., 
 J. E. Peralta, F. Ogliaro, M. Bearpark, J. J. Heyd, E. Brothers, 
 K. N. Kudin, V. N. Staroverov, T. Keith, R. Kobayashi, J. Normand, 
 K. Raghavachari, A. Rendell, J. C. Burant, S. S. Iyengar, J. Tomasi, 
 M. Cossi, N. Rega, J. M. Millam, M. Klene, J. E. Knox, J. B. Cross, 
 V. Bakken, C. Adamo, J. Jaramillo, R. Gomperts, R. E. Stratmann, 
 O. Yazyev, A. J. Austin, R. Cammi, C. Pomelli, J. W. Ochterski, 
 R. L. Martin, K. Morokuma, V. G. Zakrzewski, G. A. Voth, 
 P. Salvador, J. J. Dannenberg, S. Dapprich, A. D. Daniels, 
 O. Farkas, J. B. Foresman, J. V. Ortiz, J. Cioslowski, 
 and D. J. Fox, Gaussian, Inc., Wallingford CT, 2013.
 
 ******************************************
 Gaussian 09:  EM64L-G09RevE.01 30-Nov-2015
                 6-Mar-2019 
 ******************************************
 %NProcShared=2
 Will use up to    2 processors via shared memory.
 ----------------------------------------------------------
 #p b3lyp/6-311++G(3df,2p) opt(MaxCycles=200) Symmetry=None
 ----------------------------------------------------------
 1/6=200,14=-1,18=20,19=15,26=3,38=1/1,3;
 2/9=110,12=2,15=3,17=6,18=5,40=1/2;
 3/5=4,6=6,7=1216,11=2,16=1,25=1,30=1,71=1,74=-5/1,2,3;
 4//1;
 5/5=2,38=5/2;
 6/7=2,8=2,9=2,10=2,28=1/1;
 7/30=1/1,2,3,16;
 1/6=200,14=-1,18=20,19=15,26=3/3(2);
 2/9=110,15=3/2;
 99//99;
 2/9=110,15=3/2;
 3/5=4,6=6,7=1216,11=2,16=1,25=1,30=1,71=1,74=-5/1,2,3;
 4/5=5,16=3,69=1/1;
 5/5=2,38=5/2;
 7/30=1/1,2,3,16;
 1/6=200,14=-1,18=20,19=15,26=3/3(-5);
 2/9=110,15=3/2;
 6/7=2,8=2,9=2,10=2,19=2,28=1/1;
 99/9=1/99;
 Leave Link    1 at Wed Mar  6 14:33:09 2019, MaxMem=           0 cpu:         0.2
 (Enter /home/proyectos/fulerenos/M3C-v2.0/M3C-deps_CCC/g09-AM64L-G09RevC.01/l101.exe)
 ---------
 b3lyp opt
 ---------
 Symbolic Z-matrix:
 Charge = -1 Multiplicity = 1
 C                     1.18081   0.62217   0.71335 
 C                     0.95022  -0.40339  -0.09883 
 H                     1.67688  -1.12609  -0.45255 
 H                    -0.90272  -1.33067  -0.19746 
 H                    -0.59084  -0.38284  -1.48715 
 O                    -0.42194  -0.54915  -0.53768 
 
 NAtoms=      6 NQM=        6 NQMF=       0 NMMI=      0 NMMIF=      0
                NMic=       0 NMicF=      0.
                    Isotopes and Nuclear Properties:
 (Nuclear quadrupole moments (NQMom) in fm**2, nuclear magnetic moments (NMagM)
  in nuclear magnetons)

  Atom         1           2           3           4           5           6
 IAtWgt=          12          12           1           1           1          16
 AtmWgt=  12.0000000  12.0000000   1.0078250   1.0078250   1.0078250  15.9949146
 NucSpn=           0           0           1           1           1           0
 AtZEff=   0.0000000   0.0000000   0.0000000   0.0000000   0.0000000   0.0000000
 NQMom=    0.0000000   0.0000000   0.0000000   0.0000000   0.0000000   0.0000000
 NMagM=    0.0000000   0.0000000   2.7928460   2.7928460   2.7928460   0.0000000
 AtZNuc=   6.0000000   6.0000000   1.0000000   1.0000000   1.0000000   8.0000000
 Leave Link  101 at Wed Mar  6 14:33:10 2019, MaxMem=    33554432 cpu:         0.4
 (Enter /home/proyectos/fulerenos/M3C-v2.0/M3C-deps_CCC/g09-AM64L-G09RevC.01/l103.exe)

 GradGradGradGradGradGradGradGradGradGradGradGradGradGradGradGradGradGrad
 Berny optimization.
 Initialization pass.
                           ----------------------------
                           !    Initial Parameters    !
                           ! (Angstroms and Degrees)  !
 --------------------------                            --------------------------
 ! Name  Definition              Value          Derivative Info.                !
 --------------------------------------------------------------------------------
 ! R1    R(1,2)                  1.3284         estimate D2E/DX2                !
 ! R2    R(2,3)                  1.0842         estimate D2E/DX2                !
 ! R3    R(2,6)                  1.448          estimate D2E/DX2                !
 ! R4    R(4,6)                  0.9786         estimate D2E/DX2                !
 ! R5    R(5,6)                  0.9786         estimate D2E/DX2                !
 ! A1    A(1,2,3)              126.7097         estimate D2E/DX2                !
 ! A2    A(1,2,6)              115.3099         estimate D2E/DX2                !
 ! A3    A(3,2,6)              117.9801         estimate D2E/DX2                !
 ! A4    A(2,6,4)              116.1406         estimate D2E/DX2                !
 ! A5    A(2,6,5)              116.1358         estimate D2E/DX2                !
 ! A6    A(4,6,5)              112.8446         estimate D2E/DX2                !
 ! D1    D(1,2,6,4)           -111.7652         estimate D2E/DX2                !
 ! D2    D(1,2,6,5)            111.9708         estimate D2E/DX2                !
 ! D3    D(3,2,6,4)             68.0504         estimate D2E/DX2                !
 ! D4    D(3,2,6,5)            -68.2135         estimate D2E/DX2                !
 --------------------------------------------------------------------------------
 Trust Radius=3.00D-01 FncErr=1.00D-07 GrdErr=1.00D-06
 Number of steps in this run=    100 maximum allowed number of steps=    100.
 GradGradGradGradGradGradGradGradGradGradGradGradGradGradGradGradGradGrad

 Leave Link  103 at Wed Mar  6 14:33:11 2019, MaxMem=    33554432 cpu:         0.1
 (Enter /home/proyectos/fulerenos/M3C-v2.0/M3C-deps_CCC/g09-AM64L-G09RevC.01/l202.exe)
                          Input orientation:                          
 ---------------------------------------------------------------------
 Center     Atomic      Atomic             Coordinates (Angstroms)
 Number     Number       Type             X           Y           Z
 ---------------------------------------------------------------------
      1          6           0        1.180809    0.622169    0.713349
      2          6           0        0.950221   -0.403393   -0.098828
      3          1           0        1.676884   -1.126091   -0.452549
      4          1           0       -0.902722   -1.330672   -0.197458
      5          1           0       -0.590841   -0.382839   -1.487154
      6          8           0       -0.421943   -0.549145   -0.537684
 ---------------------------------------------------------------------
                    Distance matrix (angstroms):
                    1          2          3          4          5
     1  C    0.000000
     2  C    1.328375   0.000000
     3  H    2.159125   1.084182   0.000000
     4  H    2.997375   2.074361   2.600248   0.000000
     5  H    2.998499   2.074306   2.601040   1.630636   0.000000
     6  O    2.346460   1.447989   2.178346   0.978615   0.978610
                    6
     6  O    0.000000
 Symmetry turned off by external request.
 Stoichiometry    C2H3O
 Rotational constants (GHZ):     60.1111823     11.2928565     10.0115269
 Leave Link  202 at Wed Mar  6 14:33:12 2019, MaxMem=    33554432 cpu:         0.3
 (Enter /home/proyectos/fulerenos/M3C-v2.0/M3C-deps_CCC/g09-AM64L-G09RevC.01/l301.exe)
 Standard basis: 6-311++G(3df,2p) (5D, 7F)
 Ernie: Thresh=  0.10000D-02 Tol=  0.10000D-05 Strict=F.
   147 basis functions,   210 primitive gaussians,   165 cartesian basis functions
    12 alpha electrons       12 beta electrons
       nuclear repulsion energy        63.6133557615 Hartrees.
 IExCor=  402 DFT=T Ex+Corr=B3LYP ExCW=0 ScaHFX=  0.200000
 ScaDFX=  0.800000  0.720000  1.000000  0.810000 ScalE2=  1.000000  1.000000
 IRadAn=      0 IRanWt=     -1 IRanGd=            0 ICorTp=0 IEmpDi=  4
 NAtoms=    6 NActive=    6 NUniq=    6 SFac= 1.00D+00 NAtFMM=   60 NAOKFM=F Big=F
 Integral buffers will be    131072 words long.
 Raffenetti 2 integral format.
 Two-electron integral symmetry is turned off.
 Leave Link  301 at Wed Mar  6 14:33:13 2019, MaxMem=    33554432 cpu:         0.9
 (Enter /home/proyectos/fulerenos/M3C-v2.0/M3C-deps_CCC/g09-AM64L-G09RevC.01/l302.exe)
 NPDir=0 NMtPBC=     1 NCelOv=     1 NCel=       1 NClECP=     1 NCelD=      1
         NCelK=      1 NCelE2=     1 NClLst=     1 CellRange=     0.0.
 One-electron integrals computed using PRISM.
 NBasis=   147 RedAO= T EigKep=  5.45D-05  NBF=   147
 NBsUse=   147 1.00D-06 EigRej= -1.00D+00 NBFU=   147
 Precomputing XC quadrature grid using
 IXCGrd= 4 IRadAn=           0 IRanWt=          -1 IRanGd=           0 AccXCQ= 0.00D+00.
 Generated NRdTot=       0 NPtTot=           0 NUsed=           0 NTot=          32
 NSgBfM=   165   165   165   165   165 MxSgAt=     6 MxSgA2=     6.
 Leave Link  302 at Wed Mar  6 14:33:17 2019, MaxMem=    33554432 cpu:         2.3
 (Enter /home/proyectos/fulerenos/M3C-v2.0/M3C-deps_CCC/g09-AM64L-G09RevC.01/l303.exe)
 DipDrv:  MaxL=1.
 Leave Link  303 at Wed Mar  6 14:33:19 2019, MaxMem=    33554432 cpu:         0.6
 (Enter /home/proyectos/fulerenos/M3C-v2.0/M3C-deps_CCC/g09-AM64L-G09RevC.01/l401.exe)
 ExpMin= 3.60D-02 ExpMax= 8.59D+03 ExpMxC= 1.30D+03 IAcc=3 IRadAn=         5 AccDes= 0.00D+00
 Harris functional with IExCor=  402 and IRadAn=       5 diagonalized for initial guess.
 HarFok:  IExCor=  402 AccDes= 0.00D+00 IRadAn=         5 IDoV= 1 UseB2=F ITyADJ=14
 ICtDFT=  3500011 ScaDFX=  1.000000  1.000000  1.000000  1.000000
 FoFCou: FMM=F IPFlag=           0 FMFlag=      100000 FMFlg1=           0
         NFxFlg=           0 DoJE=T BraDBF=F KetDBF=T FulRan=T
         wScrn=  0.000000 ICntrl=     500 IOpCl=  0 I1Cent=   200000004 NGrid=           0
         NMat0=    1 NMatS0=      1 NMatT0=    0 NMatD0=    1 NMtDS0=    0 NMtDT0=    0
 Symmetry not used in FoFCou.
 Harris En= -153.330762416413    
 JPrj=0 DoOrth=F DoCkMO=F.
 Leave Link  401 at Wed Mar  6 14:33:25 2019, MaxMem=    33554432 cpu:         6.7
 (Enter /home/proyectos/fulerenos/M3C-v2.0/M3C-deps_CCC/g09-AM64L-G09RevC.01/l502.exe)
 Closed shell SCF:
 Using DIIS extrapolation, IDIIS=  1040.
 Two-electron integral symmetry not used.
 IVT=      102217 IEndB=      102217 NGot=    33554432 MDV=    33496246
 LenX=    33496246 LenY=    33468580
 Requested convergence on RMS density matrix=1.00D-08 within 128 cycles.
 Requested convergence on MAX density matrix=1.00D-06.
 Requested convergence on             energy=1.00D-06.
 No special actions if energy rises.
 Fock matrices will be formed incrementally for  20 cycles.

 Cycle   1  Pass 1  IDiag  1:
 FoFJK:  IHMeth= 1 ICntrl=       0 DoSepK=F KAlg= 0 I1Cent=   0 FoldK=F
 IRaf= 990000000 NMat=   1 IRICut=       1 DoRegI=T DoRafI=F ISym2E= 0.
 FoFCou: FMM=F IPFlag=           0 FMFlag=      100000 FMFlg1=           0
         NFxFlg=           0 DoJE=F BraDBF=F KetDBF=F FulRan=T
         wScrn=  0.000000 ICntrl=       0 IOpCl=  0 I1Cent=           0 NGrid=           0
         NMat0=    1 NMatS0=      1 NMatT0=    0 NMatD0=    1 NMtDS0=    0 NMtDT0=    0
 Symmetry not used in FoFCou.
 E= -152.614440963837    
 DIIS: error= 4.40D-02 at cycle   1 NSaved=   1.
 NSaved= 1 IEnMin= 1 EnMin= -152.614440963837     IErMin= 1 ErrMin= 4.40D-02
 ErrMax= 4.40D-02  0.00D+00 EMaxC= 1.00D-01 BMatC= 3.25D-01 BMatP= 3.25D-01
 IDIUse=3 WtCom= 5.60D-01 WtEn= 4.40D-01
 Coeff-Com:  0.100D+01
 Coeff-En:   0.100D+01
 Coeff:      0.100D+01
 Gap=     0.094 Goal=   None    Shift=    0.000
 GapD=    0.094 DampG=0.500 DampE=0.500 DampFc=0.2500 IDamp=-1.
 Damping current iteration by 2.50D-01
 RMSDP=6.78D-01 MaxDP=5.22D+01              OVMax= 9.98D-01

 Cycle   2  Pass 1  IDiag  1:
 RMSU=  1.69D-01    CP:  1.50D+00
 E= -152.720530617804     Delta-E=       -0.106089653968 Rises=F Damp=T
 DIIS: error= 1.16D-02 at cycle   2 NSaved=   2.
 NSaved= 2 IEnMin= 2 EnMin= -152.720530617804     IErMin= 2 ErrMin= 1.16D-02
 ErrMax= 1.16D-02  0.00D+00 EMaxC= 1.00D-01 BMatC= 2.49D-02 BMatP= 3.25D-01
 IDIUse=3 WtCom= 8.84D-01 WtEn= 1.16D-01
 Coeff-Com: -0.128D+00 0.113D+01
 Coeff-En:   0.375D+00 0.625D+00
 Coeff:     -0.694D-01 0.107D+01
 Gap=    -0.174 Goal=   None    Shift=    0.000
 RMSDP=1.69D-01 MaxDP=1.30D+01 DE=-1.06D-01 OVMax= 9.95D-01

 Cycle   3  Pass 1  IDiag  1:
 RMSU=  3.86D-03    CP:  8.92D-01  3.65D-03
 E= -152.876191904223     Delta-E=       -0.155661286419 Rises=F Damp=F
 DIIS: error= 2.92D-02 at cycle   3 NSaved=   3.
 NSaved= 3 IEnMin= 3 EnMin= -152.876191904223     IErMin= 2 ErrMin= 1.16D-02
 ErrMax= 2.92D-02  0.00D+00 EMaxC= 1.00D-01 BMatC= 1.12D-01 BMatP= 2.49D-02
 IDIUse=2 WtCom= 0.00D+00 WtEn= 1.00D+00
 Coeff-En:   0.000D+00 0.179D+00 0.821D+00
 Coeff:      0.000D+00 0.179D+00 0.821D+00
 Gap=    -0.133 Goal=   None    Shift=    0.000
 RMSDP=1.08D-01 MaxDP=5.92D+00 DE=-1.56D-01 OVMax= 1.00D+00

 Cycle   4  Pass 1  IDiag  1:
 RMSU=  9.88D-02    CP:  5.10D-01  2.55D-01  1.40D+00
 E= -150.343649852972     Delta-E=        2.532542051251 Rises=F Damp=F
 DIIS: error= 1.09D-01 at cycle   4 NSaved=   4.
 NSaved= 4 IEnMin= 3 EnMin= -152.876191904223     IErMin= 2 ErrMin= 1.16D-02
 ErrMax= 1.09D-01  0.00D+00 EMaxC= 1.00D-01 BMatC= 8.50D-01 BMatP= 2.49D-02
 IDIUse=2 WtCom= 0.00D+00 WtEn= 1.00D+00
 Coeff-En:   0.000D+00 0.000D+00 0.867D+00 0.133D+00
 Coeff:      0.000D+00 0.000D+00 0.867D+00 0.133D+00
 Gap=    -0.044 Goal=   None    Shift=    0.000
 RMSDP=8.51D-02 MaxDP=5.30D+00 DE= 2.53D+00 OVMax= 9.96D-01

 Cycle   5  Pass 1  IDiag  1:
 RMSU=  3.28D-02    CP:  8.31D-01  1.35D-01  9.29D-01  2.35D-01
 E= -152.784910384855     Delta-E=       -2.441260531883 Rises=F Damp=F
 DIIS: error= 3.72D-02 at cycle   5 NSaved=   5.
 NSaved= 5 IEnMin= 3 EnMin= -152.876191904223     IErMin= 2 ErrMin= 1.16D-02
 ErrMax= 3.72D-02  0.00D+00 EMaxC= 1.00D-01 BMatC= 1.82D-01 BMatP= 2.49D-02
 IDIUse=2 WtCom= 0.00D+00 WtEn= 1.00D+00
 Coeff-En:   0.000D+00 0.000D+00 0.562D+00 0.000D+00 0.438D+00
 Coeff:      0.000D+00 0.000D+00 0.562D+00 0.000D+00 0.438D+00
 Gap=     0.074 Goal=   None    Shift=    0.000
 RMSDP=3.53D-02 MaxDP=2.90D+00 DE=-2.44D+00 OVMax= 4.96D-01

 Cycle   6  Pass 1  IDiag  1:
 RMSU=  6.79D-03    CP:  7.90D-01  3.21D-02  9.61D-01  5.56D-02  2.64D-01
 E= -153.076250219620     Delta-E=       -0.291339834765 Rises=F Damp=F
 DIIS: error= 2.13D-03 at cycle   6 NSaved=   6.
 NSaved= 6 IEnMin= 6 EnMin= -153.076250219620     IErMin= 6 ErrMin= 2.13D-03
 ErrMax= 2.13D-03  0.00D+00 EMaxC= 1.00D-01 BMatC= 1.23D-03 BMatP= 2.49D-02
 IDIUse=3 WtCom= 9.79D-01 WtEn= 2.13D-02
 Coeff-Com: -0.874D-01 0.129D+00 0.144D+00-0.848D-02 0.411D-01 0.782D+00
 Coeff-En:   0.000D+00 0.000D+00 0.000D+00 0.000D+00 0.000D+00 0.100D+01
 Coeff:     -0.855D-01 0.126D+00 0.141D+00-0.830D-02 0.402D-01 0.787D+00
 Gap=     0.065 Goal=   None    Shift=    0.000
 RMSDP=1.71D-03 MaxDP=7.31D-02 DE=-2.91D-01 OVMax= 4.37D-02

 Cycle   7  Pass 1  IDiag  1:
 RMSU=  9.78D-04    CP:  8.02D-01  3.45D-02  1.03D+00  6.30D-02  2.95D-01
                    CP:  1.05D+00
 E= -153.076293229614     Delta-E=       -0.000043009994 Rises=F Damp=F
 DIIS: error= 2.80D-03 at cycle   7 NSaved=   7.
 NSaved= 7 IEnMin= 7 EnMin= -153.076293229614     IErMin= 6 ErrMin= 2.13D-03
 ErrMax= 2.80D-03  0.00D+00 EMaxC= 1.00D-01 BMatC= 1.44D-03 BMatP= 1.23D-03
 IDIUse=3 WtCom= 9.79D-01 WtEn= 2.13D-02
 Coeff-Com: -0.288D-01 0.342D-01 0.421D-01-0.530D-02 0.131D-01 0.569D+00
 Coeff-Com:  0.375D+00
 Coeff-En:   0.000D+00 0.000D+00 0.000D+00 0.000D+00 0.000D+00 0.494D+00
 Coeff-En:   0.506D+00
 Coeff:     -0.282D-01 0.335D-01 0.412D-01-0.519D-02 0.128D-01 0.568D+00
 Coeff:      0.378D+00
 Gap=     0.067 Goal=   None    Shift=    0.000
 RMSDP=2.58D-03 MaxDP=1.96D-01 DE=-4.30D-05 OVMax= 2.48D-02

 Cycle   8  Pass 1  IDiag  1:
 RMSU=  5.33D-04    CP:  8.00D-01  4.24D-02  9.87D-01  7.53D-02  3.48D-01
                    CP:  1.07D+00  7.81D-01
 E= -153.077132102999     Delta-E=       -0.000838873385 Rises=F Damp=F
 DIIS: error= 2.15D-03 at cycle   8 NSaved=   8.
 NSaved= 8 IEnMin= 8 EnMin= -153.077132102999     IErMin= 6 ErrMin= 2.13D-03
 ErrMax= 2.15D-03  0.00D+00 EMaxC= 1.00D-01 BMatC= 4.85D-04 BMatP= 1.23D-03
 IDIUse=3 WtCom= 9.79D-01 WtEn= 2.13D-02
 EnCoef did     2 forward-backward iterations
 Coeff-Com:  0.411D-02-0.329D-02 0.128D-04-0.265D-03-0.155D-01 0.318D+00
 Coeff-Com:  0.158D+00 0.539D+00
 Coeff-En:   0.000D+00 0.000D+00 0.000D+00 0.000D+00 0.000D+00 0.324D+00
 Coeff-En:   0.418D-01 0.634D+00
 Coeff:      0.402D-02-0.322D-02 0.125D-04-0.259D-03-0.152D-01 0.318D+00
 Coeff:      0.156D+00 0.541D+00
 Gap=     0.068 Goal=   None    Shift=    0.000
 RMSDP=4.38D-04 MaxDP=2.57D-02 DE=-8.39D-04 OVMax= 8.91D-03

 Cycle   9  Pass 1  IDiag  1:
 RMSU=  1.48D-04    CP:  8.02D-01  4.18D-02  9.82D-01  7.31D-02  3.39D-01
                    CP:  1.07D+00  6.62D-01  1.20D+00
 E= -153.077599550041     Delta-E=       -0.000467447042 Rises=F Damp=F
 DIIS: error= 1.06D-03 at cycle   9 NSaved=   9.
 NSaved= 9 IEnMin= 9 EnMin= -153.077599550041     IErMin= 9 ErrMin= 1.06D-03
 ErrMax= 1.06D-03  0.00D+00 EMaxC= 1.00D-01 BMatC= 1.30D-04 BMatP= 4.85D-04
 IDIUse=3 WtCom= 9.89D-01 WtEn= 1.06D-02
 Coeff-Com: -0.466D-02 0.995D-02 0.161D-01-0.146D-03-0.140D-01 0.117D+00
 Coeff-Com: -0.264D-01 0.104D-01 0.892D+00
 Coeff-En:   0.000D+00 0.000D+00 0.000D+00 0.000D+00 0.000D+00 0.777D-01
 Coeff-En:   0.000D+00 0.000D+00 0.922D+00
 Coeff:     -0.461D-02 0.984D-02 0.159D-01-0.144D-03-0.138D-01 0.117D+00
 Coeff:     -0.261D-01 0.102D-01 0.892D+00
 Gap=     0.068 Goal=   None    Shift=    0.000
 RMSDP=1.06D-03 MaxDP=7.96D-02 DE=-4.67D-04 OVMax= 1.46D-02

 Cycle  10  Pass 1  IDiag  1:
 RMSU=  5.95D-05    CP:  8.01D-01  3.87D-02  9.89D-01  6.78D-02  3.16D-01
                    CP:  1.06D+00  6.44D-01  9.99D-01  1.02D+00
 E= -153.077805019258     Delta-E=       -0.000205469216 Rises=F Damp=F
 DIIS: error= 1.12D-04 at cycle  10 NSaved=  10.
 NSaved=10 IEnMin=10 EnMin= -153.077805019258     IErMin=10 ErrMin= 1.12D-04
 ErrMax= 1.12D-04  0.00D+00 EMaxC= 1.00D-01 BMatC= 2.14D-06 BMatP= 1.30D-04
 IDIUse=3 WtCom= 9.99D-01 WtEn= 1.12D-03
 Coeff-Com: -0.799D-03 0.109D-02 0.249D-02-0.180D-04-0.263D-02 0.703D-02
 Coeff-Com: -0.457D-01-0.233D-01 0.208D+00 0.854D+00
 Coeff-En:   0.000D+00 0.000D+00 0.000D+00 0.000D+00 0.000D+00 0.000D+00
 Coeff-En:   0.000D+00 0.000D+00 0.000D+00 0.100D+01
 Coeff:     -0.798D-03 0.108D-02 0.249D-02-0.180D-04-0.263D-02 0.702D-02
 Coeff:     -0.456D-01-0.232D-01 0.207D+00 0.854D+00
 Gap=     0.068 Goal=   None    Shift=    0.000
 RMSDP=2.11D-04 MaxDP=1.55D-02 DE=-2.05D-04 OVMax= 2.76D-03

 Cycle  11  Pass 1  IDiag  1:
 RMSU=  1.70D-05    CP:  8.02D-01  3.94D-02  9.88D-01  6.87D-02  3.21D-01
                    CP:  1.06D+00  6.46D-01  1.09D+00  1.16D+00  9.69D-01
 E= -153.077805590803     Delta-E=       -0.000000571545 Rises=F Damp=F
 DIIS: error= 1.19D-04 at cycle  11 NSaved=  11.
 NSaved=11 IEnMin=11 EnMin= -153.077805590803     IErMin=10 ErrMin= 1.12D-04
 ErrMax= 1.19D-04  0.00D+00 EMaxC= 1.00D-01 BMatC= 1.68D-06 BMatP= 2.14D-06
 IDIUse=3 WtCom= 9.99D-01 WtEn= 1.12D-03
 Coeff-Com:  0.311D-04-0.594D-04 0.376D-03 0.638D-05-0.314D-03-0.222D-02
 Coeff-Com: -0.221D-01-0.167D-01-0.200D-01 0.243D+00 0.818D+00
 Coeff-En:   0.000D+00 0.000D+00 0.000D+00 0.000D+00 0.000D+00 0.000D+00
 Coeff-En:   0.000D+00 0.000D+00 0.000D+00 0.400D+00 0.600D+00
 Coeff:      0.310D-04-0.593D-04 0.376D-03 0.637D-05-0.313D-03-0.221D-02
 Coeff:     -0.220D-01-0.167D-01-0.200D-01 0.243D+00 0.818D+00
 Gap=     0.068 Goal=   None    Shift=    0.000
 RMSDP=6.27D-05 MaxDP=4.55D-03 DE=-5.72D-07 OVMax= 9.24D-04

 Cycle  12  Pass 1  IDiag  1:
 RMSU=  3.56D-06    CP:  8.01D-01  3.92D-02  9.88D-01  6.84D-02  3.19D-01
                    CP:  1.06D+00  6.41D-01  1.08D+00  1.17D+00  1.10D+00
                    CP:  1.12D+00
 E= -153.077807945277     Delta-E=       -0.000002354474 Rises=F Damp=F
 DIIS: error= 2.85D-05 at cycle  12 NSaved=  12.
 NSaved=12 IEnMin=12 EnMin= -153.077807945277     IErMin=12 ErrMin= 2.85D-05
 ErrMax= 2.85D-05  0.00D+00 EMaxC= 1.00D-01 BMatC= 7.47D-08 BMatP= 1.68D-06
 IDIUse=1 WtCom= 1.00D+00 WtEn= 0.00D+00
 Coeff-Com: -0.507D-05 0.607D-04 0.732D-04-0.376D-05 0.781D-05-0.826D-03
 Coeff-Com: -0.509D-02-0.531D-02-0.263D-01 0.512D-01 0.213D+00 0.774D+00
 Coeff:     -0.507D-05 0.607D-04 0.732D-04-0.376D-05 0.781D-05-0.826D-03
 Coeff:     -0.509D-02-0.531D-02-0.263D-01 0.512D-01 0.213D+00 0.774D+00
 Gap=     0.068 Goal=   None    Shift=    0.000
 RMSDP=2.55D-05 MaxDP=1.87D-03 DE=-2.35D-06 OVMax= 3.61D-04

 Cycle  13  Pass 1  IDiag  1:
 RMSU=  1.01D-06    CP:  8.01D-01  3.92D-02  9.88D-01  6.83D-02  3.19D-01
                    CP:  1.06D+00  6.40D-01  1.07D+00  1.17D+00  1.12D+00
                    CP:  1.19D+00  1.02D+00
 E= -153.077808070704     Delta-E=       -0.000000125427 Rises=F Damp=F
 DIIS: error= 1.77D-06 at cycle  13 NSaved=  13.
 NSaved=13 IEnMin=13 EnMin= -153.077808070704     IErMin=13 ErrMin= 1.77D-06
 ErrMax= 1.77D-06  0.00D+00 EMaxC= 1.00D-01 BMatC= 3.06D-10 BMatP= 7.47D-08
 IDIUse=1 WtCom= 1.00D+00 WtEn= 0.00D+00
 Coeff-Com:  0.164D-04-0.391D-05-0.275D-04 0.208D-06 0.151D-04-0.138D-03
 Coeff-Com: -0.317D-03-0.831D-03-0.503D-02 0.522D-02 0.983D-02 0.231D+00
 Coeff-Com:  0.760D+00
 Coeff:      0.164D-04-0.391D-05-0.275D-04 0.208D-06 0.151D-04-0.138D-03
 Coeff:     -0.317D-03-0.831D-03-0.503D-02 0.522D-02 0.983D-02 0.231D+00
 Coeff:      0.760D+00
 Gap=     0.068 Goal=   None    Shift=    0.000
 RMSDP=5.70D-07 MaxDP=2.34D-05 DE=-1.25D-07 OVMax= 1.98D-05

 Cycle  14  Pass 1  IDiag  1:
 RMSU=  2.62D-07    CP:  8.01D-01  3.92D-02  9.88D-01  6.83D-02  3.19D-01
                    CP:  1.06D+00  6.40D-01  1.07D+00  1.17D+00  1.12D+00
                    CP:  1.20D+00  1.06D+00  1.02D+00
 E= -153.077808071156     Delta-E=       -0.000000000452 Rises=F Damp=F
 DIIS: error= 1.02D-07 at cycle  14 NSaved=  14.
 NSaved=14 IEnMin=14 EnMin= -153.077808071156     IErMin=14 ErrMin= 1.02D-07
 ErrMax= 1.02D-07  0.00D+00 EMaxC= 1.00D-01 BMatC= 1.92D-12 BMatP= 3.06D-10
 IDIUse=1 WtCom= 1.00D+00 WtEn= 0.00D+00
 Coeff-Com:  0.122D-05-0.145D-05-0.275D-05 0.334D-07 0.181D-05-0.649D-05
 Coeff-Com:  0.701D-04-0.829D-05 0.222D-03 0.195D-03-0.496D-02 0.909D-02
 Coeff-Com:  0.767D-01 0.919D+00
 Coeff:      0.122D-05-0.145D-05-0.275D-05 0.334D-07 0.181D-05-0.649D-05
 Coeff:      0.701D-04-0.829D-05 0.222D-03 0.195D-03-0.496D-02 0.909D-02
 Coeff:      0.767D-01 0.919D+00
 Gap=     0.068 Goal=   None    Shift=    0.000
 RMSDP=5.79D-07 MaxDP=3.58D-05 DE=-4.52D-10 OVMax= 2.16D-06

 Cycle  15  Pass 1  IDiag  1:
 RMSU=  3.72D-08    CP:  8.01D-01  3.92D-02  9.88D-01  6.83D-02  3.19D-01
                    CP:  1.06D+00  6.40D-01  1.07D+00  1.17D+00  1.13D+00
                    CP:  1.21D+00  1.08D+00  1.07D+00  1.22D+00
 E= -153.077808071158     Delta-E=       -0.000000000002 Rises=F Damp=F
 DIIS: error= 2.65D-08 at cycle  15 NSaved=  15.
 NSaved=15 IEnMin=15 EnMin= -153.077808071158     IErMin=15 ErrMin= 2.65D-08
 ErrMax= 2.65D-08  0.00D+00 EMaxC= 1.00D-01 BMatC= 1.69D-13 BMatP= 1.92D-12
 IDIUse=1 WtCom= 1.00D+00 WtEn= 0.00D+00
 Coeff-Com: -0.288D-06-0.199D-07 0.288D-06-0.660D-07 0.300D-06-0.380D-06
 Coeff-Com:  0.194D-04 0.272D-04 0.101D-03-0.911D-04-0.808D-03-0.321D-02
 Coeff-Com: -0.379D-02 0.693D-01 0.938D+00
 Coeff:     -0.288D-06-0.199D-07 0.288D-06-0.660D-07 0.300D-06-0.380D-06
 Coeff:      0.194D-04 0.272D-04 0.101D-03-0.911D-04-0.808D-03-0.321D-02
 Coeff:     -0.379D-02 0.693D-01 0.938D+00
 Gap=     0.068 Goal=   None    Shift=    0.000
 RMSDP=1.23D-07 MaxDP=6.21D-06 DE=-2.10D-12 OVMax= 6.07D-07

 Cycle  16  Pass 1  IDiag  1:
 RMSU=  8.07D-09    CP:  8.01D-01  3.92D-02  9.88D-01  6.83D-02  3.19D-01
                    CP:  1.06D+00  6.40D-01  1.07D+00  1.17D+00  1.13D+00
                    CP:  1.21D+00  1.09D+00  1.08D+00  1.29D+00  1.38D+00
 E= -153.077808071158     Delta-E=       -0.000000000000 Rises=F Damp=F
 DIIS: error= 6.52D-09 at cycle  16 NSaved=  16.
 NSaved=16 IEnMin=16 EnMin= -153.077808071158     IErMin=16 ErrMin= 6.52D-09
 ErrMax= 6.52D-09  0.00D+00 EMaxC= 1.00D-01 BMatC= 4.63D-15 BMatP= 1.69D-13
 IDIUse=1 WtCom= 1.00D+00 WtEn= 0.00D+00
 Coeff-Com:  0.259D-07 0.413D-10-0.756D-07-0.103D-07 0.211D-07-0.310D-06
 Coeff-Com:  0.629D-06 0.304D-05-0.203D-05-0.203D-04 0.669D-04-0.391D-03
 Coeff-Com: -0.204D-02-0.317D-01 0.294D-01 0.100D+01
 Coeff:      0.259D-07 0.413D-10-0.756D-07-0.103D-07 0.211D-07-0.310D-06
 Coeff:      0.629D-06 0.304D-05-0.203D-05-0.203D-04 0.669D-04-0.391D-03
 Coeff:     -0.204D-02-0.317D-01 0.294D-01 0.100D+01
 Gap=     0.068 Goal=   None    Shift=    0.000
 RMSDP=2.82D-08 MaxDP=1.24D-06 DE=-1.99D-13 OVMax= 2.37D-07

 Cycle  17  Pass 1  IDiag  1:
 RMSU=  1.77D-09    CP:  8.01D-01  3.92D-02  9.88D-01  6.83D-02  3.19D-01
                    CP:  1.06D+00  6.40D-01  1.07D+00  1.17D+00  1.13D+00
                    CP:  1.21D+00  1.09D+00  1.09D+00  1.32D+00  1.54D+00
                    CP:  1.49D+00
 E= -153.077808071160     Delta-E=       -0.000000000002 Rises=F Damp=F
 DIIS: error= 2.51D-09 at cycle  17 NSaved=  17.
 NSaved=17 IEnMin=17 EnMin= -153.077808071160     IErMin=17 ErrMin= 2.51D-09
 ErrMax= 2.51D-09  0.00D+00 EMaxC= 1.00D-01 BMatC= 1.11D-15 BMatP= 4.63D-15
 IDIUse=1 WtCom= 1.00D+00 WtEn= 0.00D+00
 Large coefficients: NSaved= 17 BigCof=    0.00 CofMax=   10.00 Det=-1.28D-15
 Inversion failed.  Reducing to 16 matrices.
 Large coefficients: NSaved= 16 BigCof=    0.00 CofMax=   10.00 Det=-1.29D-15
 Inversion failed.  Reducing to 15 matrices.
 Coeff-Com:  0.237D-07-0.538D-08-0.151D-07 0.114D-07-0.322D-06-0.128D-06
 Coeff-Com: -0.310D-05-0.371D-05 0.228D-04 0.395D-06-0.595D-03-0.126D-01
 Coeff-Com: -0.254D-01 0.304D+00 0.735D+00
 Coeff:      0.237D-07-0.538D-08-0.151D-07 0.114D-07-0.322D-06-0.128D-06
 Coeff:     -0.310D-05-0.371D-05 0.228D-04 0.395D-06-0.595D-03-0.126D-01
 Coeff:     -0.254D-01 0.304D+00 0.735D+00
 Gap=     0.068 Goal=   None    Shift=    0.000
 RMSDP=5.72D-09 MaxDP=2.21D-07 DE=-1.76D-12 OVMax= 5.53D-08

 SCF Done:  E(RB3LYP) =  -153.077808071     A.U. after   17 cycles
            NFock= 17  Conv=0.57D-08     -V/T= 2.0025
 KE= 1.526929315893D+02 PE=-4.896776065501D+02 EE= 1.202935111282D+02
 Leave Link  502 at Wed Mar  6 14:34:45 2019, MaxMem=    33554432 cpu:       153.4
 (Enter /home/proyectos/fulerenos/M3C-v2.0/M3C-deps_CCC/g09-AM64L-G09RevC.01/l601.exe)
 Copying SCF densities to generalized density rwf, IOpCl= 0 IROHF=0.

 **********************************************************************

            Population analysis using the SCF density.

 **********************************************************************

 Alpha  occ. eigenvalues --  -19.07823 -10.01815  -9.96885  -0.97842  -0.57102
 Alpha  occ. eigenvalues --   -0.47954  -0.40491  -0.35450  -0.23820  -0.08140
 Alpha  occ. eigenvalues --   -0.07225   0.02776
 Alpha virt. eigenvalues --    0.09602   0.11987   0.12600   0.17734   0.18352
 Alpha virt. eigenvalues --    0.18633   0.21648   0.21769   0.22597   0.25465
 Alpha virt. eigenvalues --    0.25632   0.27064   0.28291   0.28875   0.31394
 Alpha virt. eigenvalues --    0.33045   0.35676   0.38583   0.40458   0.42707
 Alpha virt. eigenvalues --    0.52773   0.55161   0.56334   0.58035   0.59275
 Alpha virt. eigenvalues --    0.60689   0.62541   0.63494   0.66642   0.68662
 Alpha virt. eigenvalues --    0.72800   0.72927   0.74478   0.79080   0.79863
 Alpha virt. eigenvalues --    0.85747   0.87635   0.89495   0.94103   0.94615
 Alpha virt. eigenvalues --    1.01647   1.02438   1.07388   1.08152   1.18646
 Alpha virt. eigenvalues --    1.19391   1.19948   1.23507   1.31492   1.31817
 Alpha virt. eigenvalues --    1.32722   1.37504   1.38741   1.47882   1.55410
 Alpha virt. eigenvalues --    1.56921   1.62517   1.63949   1.73536   1.75128
 Alpha virt. eigenvalues --    1.77818   1.82143   1.94850   2.12008   2.13853
 Alpha virt. eigenvalues --    2.17371   2.31201   2.33069   2.43631   2.52219
 Alpha virt. eigenvalues --    2.81016   2.81858   2.88910   2.95779   2.99574
 Alpha virt. eigenvalues --    3.02014   3.02327   3.06023   3.09499   3.12595
 Alpha virt. eigenvalues --    3.17570   3.22203   3.25759   3.32865   3.35665
 Alpha virt. eigenvalues --    3.41921   3.45571   3.52597   3.54124   3.63919
 Alpha virt. eigenvalues --    3.70136   3.76846   3.84171   3.90123   4.05096
 Alpha virt. eigenvalues --    4.15415   4.26243   4.27728   4.34331   4.41452
 Alpha virt. eigenvalues --    4.53712   4.54356   4.70524   4.73784   4.86972
 Alpha virt. eigenvalues --    5.01264   5.37352   5.39101   5.54307   5.67572
 Alpha virt. eigenvalues --    5.75189   5.77127   6.09274   6.09467   6.43430
 Alpha virt. eigenvalues --    7.01689   7.18919   7.23646   7.24396   7.31707
 Alpha virt. eigenvalues --    7.33455   7.52947   7.54417   7.75624   7.80758
 Alpha virt. eigenvalues --    8.25849   8.39025  14.49767  14.55914  14.71446
 Alpha virt. eigenvalues --   14.99984  15.08880  23.99953  25.92988  50.17736
          Condensed to atoms (all electrons):
               1          2          3          4          5          6
     1  C    8.641701  -2.151088  -0.005058   0.560813   0.560252  -0.496658
     2  C   -2.151088   8.064637   0.356324  -0.806392  -0.805883   0.527440
     3  H   -0.005058   0.356324   0.600356   0.015293   0.015373  -0.080565
     4  H    0.560813  -0.806392   0.015293   1.453493   0.672906  -0.441297
     5  H    0.560252  -0.805883   0.015373   0.672906   1.452739  -0.440767
     6  O   -0.496658   0.527440  -0.080565  -0.441297  -0.440767   8.825687
 Mulliken charges:
               1
     1  C   -1.109962
     2  C    0.814961
     3  H    0.098277
     4  H   -0.454816
     5  H   -0.454620
     6  O    0.106159
 Sum of Mulliken charges =  -1.00000
 Mulliken charges with hydrogens summed into heavy atoms:
               1
     1  C   -1.109962
     2  C    0.913238
     6  O   -0.803276
 Electronic spatial extent (au):  <R**2>=            208.4432
 Charge=             -1.0000 electrons
 Dipole moment (field-independent basis, Debye):
    X=             -1.7181    Y=             -1.0451    Z=             -1.0355  Tot=              2.2620
 Quadrupole moment (field-independent basis, Debye-Ang):
   XX=            -36.9976   YY=            -35.2277   ZZ=            -35.4128
   XY=             -5.9609   XZ=             -5.9579   YZ=             -5.0651
 Traceless Quadrupole moment (field-independent basis, Debye-Ang):
   XX=             -1.1182   YY=              0.6517   ZZ=              0.4666
   XY=             -5.9609   XZ=             -5.9579   YZ=             -5.0651
 Octapole moment (field-independent basis, Debye-Ang**2):
  XXX=            -25.1178  YYY=             29.1710  ZZZ=             19.8384  XYY=             -6.4093
  XXY=              5.2642  XXZ=              2.0667  XZZ=             -8.1503  YZZ=              9.4797
  YYZ=              6.0392  XYZ=             -0.9869
 Hexadecapole moment (field-independent basis, Debye-Ang**3):
 XXXX=           -266.7917 YYYY=           -206.5791 ZZZZ=           -204.1969 XXXY=            -51.1934
 XXXZ=            -55.6958 YYYX=            -44.0725 YYYZ=            -47.8060 ZZZX=            -51.3575
 ZZZY=            -48.2513 XXYY=            -81.0267 XXZZ=            -83.4819 YYZZ=            -70.8532
 XXYZ=            -19.5973 YYXZ=            -20.2306 ZZXY=            -17.3922
 N-N= 6.361335576146D+01 E-N=-4.896776069259D+02  KE= 1.526929315893D+02
 No NMR shielding tensors so no spin-rotation constants.
 Leave Link  601 at Wed Mar  6 14:34:45 2019, MaxMem=    33554432 cpu:         0.6
 (Enter /home/proyectos/fulerenos/M3C-v2.0/M3C-deps_CCC/g09-AM64L-G09RevC.01/l701.exe)
 Compute integral first derivatives.
 ... and contract with generalized density number  0.
 Leave Link  701 at Wed Mar  6 14:34:46 2019, MaxMem=    33554432 cpu:         0.8
 (Enter /home/proyectos/fulerenos/M3C-v2.0/M3C-deps_CCC/g09-AM64L-G09RevC.01/l702.exe)
 L702 exits ... SP integral derivatives will be done elsewhere.
 Leave Link  702 at Wed Mar  6 14:34:46 2019, MaxMem=    33554432 cpu:         0.0
 (Enter /home/proyectos/fulerenos/M3C-v2.0/M3C-deps_CCC/g09-AM64L-G09RevC.01/l703.exe)
 Compute integral first derivatives, UseDBF=F ICtDFT=           0.
 Integral derivatives from FoFJK, PRISM(SPDF).
 Calling FoFJK, ICntrl=      2127 FMM=F ISym2X=0 I1Cent= 0 IOpClX= 0 NMat=1 NMatS=1 NMatT=0.
 FoFJK:  IHMeth= 1 ICntrl=    2127 DoSepK=F KAlg= 0 I1Cent=   0 FoldK=F
 IRaf=         0 NMat=   1 IRICut=       1 DoRegI=T DoRafI=F ISym2E= 0.
 FoFCou: FMM=F IPFlag=           0 FMFlag=      100000 FMFlg1=         800
         NFxFlg=           0 DoJE=F BraDBF=F KetDBF=F FulRan=T
         wScrn=  0.000000 ICntrl=    2127 IOpCl=  0 I1Cent=           0 NGrid=           0
         NMat0=    1 NMatS0=      1 NMatT0=    0 NMatD0=    1 NMtDS0=    0 NMtDT0=    0
 Symmetry not used in FoFCou.
 Leave Link  703 at Wed Mar  6 14:34:59 2019, MaxMem=    33554432 cpu:        26.3
 (Enter /home/proyectos/fulerenos/M3C-v2.0/M3C-deps_CCC/g09-AM64L-G09RevC.01/l716.exe)
 Dipole        =-6.75956848D-01-4.11189249D-01-4.07390025D-01
 -------------------------------------------------------------------
 Center     Atomic                   Forces (Hartrees/Bohr)
 Number     Number              X              Y              Z
 -------------------------------------------------------------------
      1        6           0.000232653   -0.024550680   -0.018104963
      2        6           0.065369191    0.051048536    0.053545341
      3        1          -0.008914137   -0.007539263   -0.007762550
      4        1          -0.015116617   -0.020722885    0.001057046
      5        1          -0.009071586   -0.002408429   -0.023899212
      6        8          -0.032499504    0.004172721   -0.004835661
 -------------------------------------------------------------------
 Cartesian Forces:  Max     0.065369191 RMS     0.027170934
 Leave Link  716 at Wed Mar  6 14:34:59 2019, MaxMem=    33554432 cpu:         0.1
 (Enter /home/proyectos/fulerenos/M3C-v2.0/M3C-deps_CCC/g09-AM64L-G09RevC.01/l103.exe)

 GradGradGradGradGradGradGradGradGradGradGradGradGradGradGradGradGradGrad
 Berny optimization.
 FormGI is forming the generalized inverse of G from B-inverse, IUseBI=4.
 Internal  Forces:  Max     0.064016099 RMS     0.022004203
 Search for a local minimum.
 Step number   1 out of a maximum of  100
 All quantities printed in internal units (Hartrees-Bohrs-Radians)
 RMS Force = .22004D-01 SwitMx=.10000D-02 MixMth= 1
 Mixed Optimization -- RFO/linear search
 Second derivative matrix not updated -- first step.
 The second derivative matrix:
                          R1        R2        R3        R4        R5
           R1           0.59891
           R2           0.00000   0.35494
           R3           0.00000   0.00000   0.38510
           R4           0.00000   0.00000   0.00000   0.51655
           R5           0.00000   0.00000   0.00000   0.00000   0.51656
           A1           0.00000   0.00000   0.00000   0.00000   0.00000
           A2           0.00000   0.00000   0.00000   0.00000   0.00000
           A3           0.00000   0.00000   0.00000   0.00000   0.00000
           A4           0.00000   0.00000   0.00000   0.00000   0.00000
           A5           0.00000   0.00000   0.00000   0.00000   0.00000
           A6           0.00000   0.00000   0.00000   0.00000   0.00000
           D1           0.00000   0.00000   0.00000   0.00000   0.00000
           D2           0.00000   0.00000   0.00000   0.00000   0.00000
           D3           0.00000   0.00000   0.00000   0.00000   0.00000
           D4           0.00000   0.00000   0.00000   0.00000   0.00000
                          A1        A2        A3        A4        A5
           A1           0.16000
           A2           0.00000   0.25000
           A3           0.00000   0.00000   0.16000
           A4           0.00000   0.00000   0.00000   0.16000
           A5           0.00000   0.00000   0.00000   0.00000   0.16000
           A6           0.00000   0.00000   0.00000   0.00000   0.00000
           D1           0.00000   0.00000   0.00000   0.00000   0.00000
           D2           0.00000   0.00000   0.00000   0.00000   0.00000
           D3           0.00000   0.00000   0.00000   0.00000   0.00000
           D4           0.00000   0.00000   0.00000   0.00000   0.00000
                          A6        D1        D2        D3        D4
           A6           0.16000
           D1           0.00000   0.01057
           D2           0.00000   0.00000   0.01057
           D3           0.00000   0.00000   0.00000   0.01057
           D4           0.00000   0.00000   0.00000   0.00000   0.01057
 ITU=  0
     Eigenvalues ---    0.01057   0.01057   0.03279   0.16000   0.16000
     Eigenvalues ---    0.16000   0.22000   0.35494   0.38510   0.51655
     Eigenvalues ---    0.51656   0.59891
 RFO step:  Lambda=-1.93035524D-02 EMin= 1.05697723D-02
 Linear search not attempted -- first point.
 Iteration  1 RMS(Cart)=  0.07635722 RMS(Int)=  0.00227219
 Iteration  2 RMS(Cart)=  0.00268681 RMS(Int)=  0.00006802
 Iteration  3 RMS(Cart)=  0.00000317 RMS(Int)=  0.00006797
 Iteration  4 RMS(Cart)=  0.00000000 RMS(Int)=  0.00006797
 ITry= 1 IFail=0 DXMaxC= 1.64D-01 DCOld= 1.00D+10 DXMaxT= 3.00D-01 DXLimC= 3.00D+00 Rises=F
 Variable       Old X    -DE/DX   Delta X   Delta X   Delta X     New X
                                 (Linear)    (Quad)   (Total)
    R1        2.51026  -0.02998   0.00000  -0.04850  -0.04850   2.46176
    R2        2.04881   0.00158   0.00000   0.00423   0.00423   2.05304
    R3        2.73630   0.06402   0.00000   0.15830   0.15830   2.89460
    R4        1.84931   0.02434   0.00000   0.04543   0.04543   1.89474
    R5        1.84930   0.02434   0.00000   0.04543   0.04543   1.89473
    A1        2.21150   0.00481   0.00000   0.04006   0.04006   2.25156
    A2        2.01254   0.01892   0.00000   0.07906   0.07905   2.09159
    A3        2.05914  -0.02373   0.00000  -0.11911  -0.11911   1.94003
    A4        2.02704   0.00446   0.00000   0.01374   0.01362   2.04065
    A5        2.02695   0.00445   0.00000   0.01367   0.01355   2.04050
    A6        1.96951  -0.00891   0.00000  -0.06480  -0.06497   1.90454
    D1       -1.95067  -0.00195   0.00000  -0.03790  -0.03785  -1.98852
    D2        1.95426   0.00188   0.00000   0.03577   0.03571   1.98997
    D3        1.18770  -0.00187   0.00000  -0.03520  -0.03514   1.15256
    D4       -1.19055   0.00197   0.00000   0.03847   0.03842  -1.15213
         Item               Value     Threshold  Converged?
 Maximum Force            0.064016     0.000450     NO 
 RMS     Force            0.022004     0.000300     NO 
 Maximum Displacement     0.164179     0.001800     NO 
 RMS     Displacement     0.076434     0.001200     NO 
 Predicted change in Energy=-1.026458D-02
 Lowest energy point so far.  Saving SCF results.
 GradGradGradGradGradGradGradGradGradGradGradGradGradGradGradGradGradGrad

 Leave Link  103 at Wed Mar  6 14:35:00 2019, MaxMem=    33554432 cpu:         0.0
 (Enter /home/proyectos/fulerenos/M3C-v2.0/M3C-deps_CCC/g09-AM64L-G09RevC.01/l202.exe)
                          Input orientation:                          
 ---------------------------------------------------------------------
 Center     Atomic      Atomic             Coordinates (Angstroms)
 Number     Number       Type             X           Y           Z
 ---------------------------------------------------------------------
      1          6           0        1.267689    0.638390    0.745856
      2          6           0        0.984240   -0.351861   -0.051711
      3          1           0        1.643375   -1.116091   -0.453961
      4          1           0       -0.931448   -1.371551   -0.232509
      5          1           0       -0.618195   -0.421896   -1.524525
      6          8           0       -0.453253   -0.546962   -0.543475
 ---------------------------------------------------------------------
                    Distance matrix (angstroms):
                    1          2          3          4          5
     1  C    0.000000
     2  C    1.302710   0.000000
     3  H    2.158449   1.086421   0.000000
     4  H    3.135803   2.177686   2.596923   0.000000
     5  H    3.136143   2.177586   2.596673   1.633792   0.000000
     6  O    2.455417   1.531757   2.174343   1.002655   1.002650
                    6
     6  O    0.000000
 Symmetry turned off by external request.
 Stoichiometry    C2H3O
 Rotational constants (GHZ):     64.4076159     10.2527133      9.2817580
 Leave Link  202 at Wed Mar  6 14:35:00 2019, MaxMem=    33554432 cpu:         0.0
 (Enter /home/proyectos/fulerenos/M3C-v2.0/M3C-deps_CCC/g09-AM64L-G09RevC.01/l301.exe)
 Standard basis: 6-311++G(3df,2p) (5D, 7F)
 Ernie: Thresh=  0.10000D-02 Tol=  0.10000D-05 Strict=F.
   147 basis functions,   210 primitive gaussians,   165 cartesian basis functions
    12 alpha electrons       12 beta electrons
       nuclear repulsion energy        62.0082941844 Hartrees.
 IExCor=  402 DFT=T Ex+Corr=B3LYP ExCW=0 ScaHFX=  0.200000
 ScaDFX=  0.800000  0.720000  1.000000  0.810000 ScalE2=  1.000000  1.000000
 IRadAn=      0 IRanWt=     -1 IRanGd=            0 ICorTp=0 IEmpDi=  4
 NAtoms=    6 NActive=    6 NUniq=    6 SFac= 1.00D+00 NAtFMM=   60 NAOKFM=F Big=F
 Integral buffers will be    131072 words long.
 Raffenetti 2 integral format.
 Two-electron integral symmetry is turned off.
 Leave Link  301 at Wed Mar  6 14:35:00 2019, MaxMem=    33554432 cpu:         0.1
 (Enter /home/proyectos/fulerenos/M3C-v2.0/M3C-deps_CCC/g09-AM64L-G09RevC.01/l302.exe)
 NPDir=0 NMtPBC=     1 NCelOv=     1 NCel=       1 NClECP=     1 NCelD=      1
         NCelK=      1 NCelE2=     1 NClLst=     1 CellRange=     0.0.
 One-electron integrals computed using PRISM.
 NBasis=   147 RedAO= T EigKep=  4.83D-05  NBF=   147
 NBsUse=   147 1.00D-06 EigRej= -1.00D+00 NBFU=   147
 Precomputing XC quadrature grid using
 IXCGrd= 4 IRadAn=           0 IRanWt=          -1 IRanGd=           0 AccXCQ= 0.00D+00.
 Generated NRdTot=       0 NPtTot=           0 NUsed=           0 NTot=          32
 NSgBfM=   165   165   165   165   165 MxSgAt=     6 MxSgA2=     6.
 Leave Link  302 at Wed Mar  6 14:35:00 2019, MaxMem=    33554432 cpu:         0.8
 (Enter /home/proyectos/fulerenos/M3C-v2.0/M3C-deps_CCC/g09-AM64L-G09RevC.01/l303.exe)
 DipDrv:  MaxL=1.
 Leave Link  303 at Wed Mar  6 14:35:00 2019, MaxMem=    33554432 cpu:         0.1
 (Enter /home/proyectos/fulerenos/M3C-v2.0/M3C-deps_CCC/g09-AM64L-G09RevC.01/l401.exe)
 Initial guess from the checkpoint file:  "/scratch/naguirre/gaussian/Gau-84736.chk"
 B after Tr=     0.036878    0.035013    0.034634
         Rot=    0.999988   -0.000797   -0.002847    0.004002 Ang=  -0.57 deg.
 Guess basis will be translated and rotated to current coordinates.
 JPrj=2 DoOrth=T DoCkMO=T.
 Generating alternative initial guess.
 ExpMin= 3.60D-02 ExpMax= 8.59D+03 ExpMxC= 1.30D+03 IAcc=3 IRadAn=         5 AccDes= 0.00D+00
 Harris functional with IExCor=  402 and IRadAn=       5 diagonalized for initial guess.
 HarFok:  IExCor=  402 AccDes= 0.00D+00 IRadAn=         5 IDoV= 1 UseB2=F ITyADJ=14
 ICtDFT=  3500011 ScaDFX=  1.000000  1.000000  1.000000  1.000000
 FoFCou: FMM=F IPFlag=           0 FMFlag=      100000 FMFlg1=           0
         NFxFlg=           0 DoJE=T BraDBF=F KetDBF=T FulRan=T
         wScrn=  0.000000 ICntrl=     500 IOpCl=  0 I1Cent=   200000004 NGrid=           0
         NMat0=    1 NMatS0=      1 NMatT0=    0 NMatD0=    1 NMtDS0=    0 NMtDT0=    0
 Symmetry not used in FoFCou.
 Harris En= -153.352156984275    
 Leave Link  401 at Wed Mar  6 14:35:03 2019, MaxMem=    33554432 cpu:         5.2
 (Enter /home/proyectos/fulerenos/M3C-v2.0/M3C-deps_CCC/g09-AM64L-G09RevC.01/l502.exe)
 Closed shell SCF:
 Using DIIS extrapolation, IDIIS=  1040.
 Two-electron integral symmetry not used.
 IVT=      102217 IEndB=      102217 NGot=    33554432 MDV=    33496246
 LenX=    33496246 LenY=    33468580
 Requested convergence on RMS density matrix=1.00D-08 within 128 cycles.
 Requested convergence on MAX density matrix=1.00D-06.
 Requested convergence on             energy=1.00D-06.
 No special actions if energy rises.
 Fock matrices will be formed incrementally for  20 cycles.

 Cycle   1  Pass 1  IDiag  1:
 FoFJK:  IHMeth= 1 ICntrl=       0 DoSepK=F KAlg= 0 I1Cent=   0 FoldK=F
 IRaf= 990000000 NMat=   1 IRICut=       1 DoRegI=T DoRafI=F ISym2E= 0.
 FoFCou: FMM=F IPFlag=           0 FMFlag=      100000 FMFlg1=           0
         NFxFlg=           0 DoJE=F BraDBF=F KetDBF=F FulRan=T
         wScrn=  0.000000 ICntrl=       0 IOpCl=  0 I1Cent=           0 NGrid=           0
         NMat0=    1 NMatS0=      1 NMatT0=    0 NMatD0=    1 NMtDS0=    0 NMtDT0=    0
 Symmetry not used in FoFCou.
 E= -153.085194542357    
 DIIS: error= 4.89D-03 at cycle   1 NSaved=   1.
 NSaved= 1 IEnMin= 1 EnMin= -153.085194542357     IErMin= 1 ErrMin= 4.89D-03
 ErrMax= 4.89D-03  0.00D+00 EMaxC= 1.00D-01 BMatC= 5.85D-03 BMatP= 5.85D-03
 IDIUse=3 WtCom= 9.51D-01 WtEn= 4.89D-02
 Coeff-Com:  0.100D+01
 Coeff-En:   0.100D+01
 Coeff:      0.100D+01
 Gap=     0.367 Goal=   None    Shift=    0.000
 GapD=    0.367 DampG=1.000 DampE=1.000 DampFc=1.0000 IDamp=-1.
 RMSDP=7.15D-03 MaxDP=4.59D-01              OVMax= 1.35D-01

 Cycle   2  Pass 1  IDiag  1:
 RMSU=  5.72D-03    CP:  8.05D-01
 E= -153.085575435521     Delta-E=       -0.000380893164 Rises=F Damp=F
 DIIS: error= 6.54D-03 at cycle   2 NSaved=   2.
 NSaved= 2 IEnMin= 2 EnMin= -153.085575435521     IErMin= 1 ErrMin= 4.89D-03
 ErrMax= 6.54D-03  0.00D+00 EMaxC= 1.00D-01 BMatC= 4.79D-03 BMatP= 5.85D-03
 IDIUse=3 WtCom= 9.35D-01 WtEn= 6.54D-02
 Coeff-Com:  0.455D+00 0.545D+00
 Coeff-En:   0.478D+00 0.522D+00
 Coeff:      0.456D+00 0.544D+00
 Gap=     0.064 Goal=   None    Shift=    0.000
 RMSDP=1.01D-02 MaxDP=7.30D-01 DE=-3.81D-04 OVMax= 2.26D-01

 Cycle   3  Pass 1  IDiag  1:
 RMSU=  2.94D-03    CP:  1.11D+00 -2.19D-01
 E= -153.066999014585     Delta-E=        0.018576420936 Rises=F Damp=F
 DIIS: error= 1.19D-02 at cycle   3 NSaved=   3.
 NSaved= 3 IEnMin= 2 EnMin= -153.085575435521     IErMin= 1 ErrMin= 4.89D-03
 ErrMax= 1.19D-02  0.00D+00 EMaxC= 1.00D-01 BMatC= 1.60D-02 BMatP= 4.79D-03
 IDIUse=2 WtCom= 0.00D+00 WtEn= 1.00D+00
 Coeff-En:   0.000D+00 0.690D+00 0.310D+00
 Coeff:      0.000D+00 0.690D+00 0.310D+00
 Gap=     0.069 Goal=   None    Shift=    0.000
 RMSDP=5.19D-03 MaxDP=3.84D-01 DE= 1.86D-02 OVMax= 1.17D-01

 Cycle   4  Pass 1  IDiag  1:
 RMSU=  4.99D-04    CP:  9.54D-01  4.07D-01  4.54D-01
 E= -153.091608697591     Delta-E=       -0.024609683006 Rises=F Damp=F
 DIIS: error= 2.63D-03 at cycle   4 NSaved=   4.
 NSaved= 4 IEnMin= 4 EnMin= -153.091608697591     IErMin= 4 ErrMin= 2.63D-03
 ErrMax= 2.63D-03  0.00D+00 EMaxC= 1.00D-01 BMatC= 8.31D-04 BMatP= 4.79D-03
 IDIUse=3 WtCom= 9.74D-01 WtEn= 2.63D-02
 Coeff-Com: -0.102D-01 0.309D+00 0.150D-01 0.686D+00
 Coeff-En:   0.000D+00 0.242D+00 0.000D+00 0.758D+00
 Coeff:     -0.990D-02 0.307D+00 0.146D-01 0.688D+00
 Gap=     0.072 Goal=   None    Shift=    0.000
 RMSDP=1.71D-03 MaxDP=1.25D-01 DE=-2.46D-02 OVMax= 3.68D-02

 Cycle   5  Pass 1  IDiag  1:
 RMSU=  1.05D-04    CP:  9.03D-01  6.19D-01  3.00D-01  9.60D-01
 E= -153.092864048541     Delta-E=       -0.001255350950 Rises=F Damp=F
 DIIS: error= 6.88D-04 at cycle   5 NSaved=   5.
 NSaved= 5 IEnMin= 5 EnMin= -153.092864048541     IErMin= 5 ErrMin= 6.88D-04
 ErrMax= 6.88D-04  0.00D+00 EMaxC= 1.00D-01 BMatC= 3.28D-05 BMatP= 8.31D-04
 IDIUse=3 WtCom= 9.93D-01 WtEn= 6.88D-03
 Coeff-Com: -0.584D-02 0.902D-01-0.526D-01 0.479D+00 0.490D+00
 Coeff-En:   0.000D+00 0.000D+00 0.000D+00 0.000D+00 0.100D+01
 Coeff:     -0.580D-02 0.896D-01-0.523D-01 0.475D+00 0.493D+00
 Gap=     0.072 Goal=   None    Shift=    0.000
 RMSDP=2.19D-04 MaxDP=1.53D-02 DE=-1.26D-03 OVMax= 4.73D-03

 Cycle   6  Pass 1  IDiag  1:
 RMSU=  4.19D-05    CP:  9.10D-01  5.92D-01  3.21D-01  9.58D-01  7.61D-01
 E= -153.092894281997     Delta-E=       -0.000030233456 Rises=F Damp=F
 DIIS: error= 1.33D-04 at cycle   6 NSaved=   6.
 NSaved= 6 IEnMin= 6 EnMin= -153.092894281997     IErMin= 6 ErrMin= 1.33D-04
 ErrMax= 1.33D-04  0.00D+00 EMaxC= 1.00D-01 BMatC= 1.27D-06 BMatP= 3.28D-05
 IDIUse=3 WtCom= 9.99D-01 WtEn= 1.33D-03
 Coeff-Com: -0.389D-03 0.804D-02-0.231D-01 0.105D+00 0.153D+00 0.758D+00
 Coeff-En:   0.000D+00 0.000D+00 0.000D+00 0.000D+00 0.000D+00 0.100D+01
 Coeff:     -0.389D-03 0.803D-02-0.231D-01 0.104D+00 0.153D+00 0.758D+00
 Gap=     0.072 Goal=   None    Shift=    0.000
 RMSDP=5.39D-05 MaxDP=3.97D-03 DE=-3.02D-05 OVMax= 1.45D-03

 Cycle   7  Pass 1  IDiag  1:
 RMSU=  1.20D-05    CP:  9.08D-01  5.98D-01  3.15D-01  9.67D-01  8.43D-01
                    CP:  9.79D-01
 E= -153.092896401535     Delta-E=       -0.000002119538 Rises=F Damp=F
 DIIS: error= 2.20D-05 at cycle   7 NSaved=   7.
 NSaved= 7 IEnMin= 7 EnMin= -153.092896401535     IErMin= 7 ErrMin= 2.20D-05
 ErrMax= 2.20D-05  0.00D+00 EMaxC= 1.00D-01 BMatC= 6.27D-08 BMatP= 1.27D-06
 IDIUse=1 WtCom= 1.00D+00 WtEn= 0.00D+00
 Coeff-Com: -0.683D-04 0.441D-03-0.706D-02 0.218D-01 0.320D-01 0.322D+00
 Coeff-Com:  0.631D+00
 Coeff:     -0.683D-04 0.441D-03-0.706D-02 0.218D-01 0.320D-01 0.322D+00
 Coeff:      0.631D+00
 Gap=     0.072 Goal=   None    Shift=    0.000
 RMSDP=1.06D-05 MaxDP=8.34D-04 DE=-2.12D-06 OVMax= 1.96D-04

 Cycle   8  Pass 1  IDiag  1:
 RMSU=  2.59D-06    CP:  9.08D-01  5.99D-01  3.14D-01  9.66D-01  8.64D-01
                    CP:  1.04D+00  1.12D+00
 E= -153.092896438657     Delta-E=       -0.000000037122 Rises=F Damp=F
 DIIS: error= 1.15D-05 at cycle   8 NSaved=   8.
 NSaved= 8 IEnMin= 8 EnMin= -153.092896438657     IErMin= 8 ErrMin= 1.15D-05
 ErrMax= 1.15D-05  0.00D+00 EMaxC= 1.00D-01 BMatC= 1.59D-08 BMatP= 6.27D-08
 IDIUse=1 WtCom= 1.00D+00 WtEn= 0.00D+00
 Coeff-Com:  0.684D-04-0.195D-02 0.152D-03-0.776D-02-0.153D-01 0.464D-01
 Coeff-Com:  0.354D+00 0.625D+00
 Coeff:      0.684D-04-0.195D-02 0.152D-03-0.776D-02-0.153D-01 0.464D-01
 Coeff:      0.354D+00 0.625D+00
 Gap=     0.072 Goal=   None    Shift=    0.000
 RMSDP=4.78D-06 MaxDP=3.25D-04 DE=-3.71D-08 OVMax= 6.23D-05

 Cycle   9  Pass 1  IDiag  1:
 RMSU=  1.64D-06    CP:  9.08D-01  6.00D-01  3.14D-01  9.64D-01  8.71D-01
                    CP:  1.10D+00  1.14D+00  1.45D+00
 E= -153.092896454357     Delta-E=       -0.000000015700 Rises=F Damp=F
 DIIS: error= 3.15D-06 at cycle   9 NSaved=   9.
 NSaved= 9 IEnMin= 9 EnMin= -153.092896454357     IErMin= 9 ErrMin= 3.15D-06
 ErrMax= 3.15D-06  0.00D+00 EMaxC= 1.00D-01 BMatC= 1.26D-09 BMatP= 1.59D-08
 IDIUse=1 WtCom= 1.00D+00 WtEn= 0.00D+00
 Coeff-Com:  0.213D-04-0.667D-03 0.378D-03-0.312D-02-0.682D-02 0.729D-02
 Coeff-Com:  0.882D-01 0.241D+00 0.674D+00
 Coeff:      0.213D-04-0.667D-03 0.378D-03-0.312D-02-0.682D-02 0.729D-02
 Coeff:      0.882D-01 0.241D+00 0.674D+00
 Gap=     0.072 Goal=   None    Shift=    0.000
 RMSDP=8.36D-07 MaxDP=3.33D-05 DE=-1.57D-08 OVMax= 2.08D-05

 Cycle  10  Pass 1  IDiag  1:
 RMSU=  3.24D-07    CP:  9.08D-01  5.99D-01  3.14D-01  9.63D-01  8.73D-01
                    CP:  1.11D+00  1.17D+00  1.58D+00  1.11D+00
 E= -153.092896455935     Delta-E=       -0.000000001578 Rises=F Damp=F
 DIIS: error= 1.03D-06 at cycle  10 NSaved=  10.
 NSaved=10 IEnMin=10 EnMin= -153.092896455935     IErMin=10 ErrMin= 1.03D-06
 ErrMax= 1.03D-06  0.00D+00 EMaxC= 1.00D-01 BMatC= 1.03D-10 BMatP= 1.26D-09
 IDIUse=1 WtCom= 1.00D+00 WtEn= 0.00D+00
 Coeff-Com:  0.275D-05-0.867D-04 0.739D-04-0.120D-03-0.306D-03 0.138D-03
 Coeff-Com: -0.866D-02 0.169D-03 0.120D+00 0.888D+00
 Coeff:      0.275D-05-0.867D-04 0.739D-04-0.120D-03-0.306D-03 0.138D-03
 Coeff:     -0.866D-02 0.169D-03 0.120D+00 0.888D+00
 Gap=     0.072 Goal=   None    Shift=    0.000
 RMSDP=5.81D-07 MaxDP=2.29D-05 DE=-1.58D-09 OVMax= 1.44D-05

 Cycle  11  Pass 1  IDiag  1:
 RMSU=  1.15D-07    CP:  9.08D-01  5.99D-01  3.14D-01  9.63D-01  8.75D-01
                    CP:  1.11D+00  1.18D+00  1.68D+00  1.21D+00  1.29D+00
 E= -153.092896456119     Delta-E=       -0.000000000184 Rises=F Damp=F
 DIIS: error= 7.81D-08 at cycle  11 NSaved=  11.
 NSaved=11 IEnMin=11 EnMin= -153.092896456119     IErMin=11 ErrMin= 7.81D-08
 ErrMax= 7.81D-08  0.00D+00 EMaxC= 1.00D-01 BMatC= 8.07D-13 BMatP= 1.03D-10
 IDIUse=1 WtCom= 1.00D+00 WtEn= 0.00D+00
 Coeff-Com:  0.769D-06-0.309D-05 0.911D-05-0.683D-05 0.662D-04-0.521D-03
 Coeff-Com: -0.387D-02-0.712D-02-0.720D-02 0.143D+00 0.876D+00
 Coeff:      0.769D-06-0.309D-05 0.911D-05-0.683D-05 0.662D-04-0.521D-03
 Coeff:     -0.387D-02-0.712D-02-0.720D-02 0.143D+00 0.876D+00
 Gap=     0.072 Goal=   None    Shift=    0.000
 RMSDP=1.99D-07 MaxDP=1.44D-05 DE=-1.84D-10 OVMax= 2.34D-06

 Cycle  12  Pass 1  IDiag  1:
 RMSU=  1.19D-08    CP:  9.08D-01  5.99D-01  3.14D-01  9.63D-01  8.75D-01
                    CP:  1.12D+00  1.18D+00  1.70D+00  1.23D+00  1.42D+00
                    CP:  1.33D+00
 E= -153.092896456124     Delta-E=       -0.000000000005 Rises=F Damp=F
 DIIS: error= 1.24D-08 at cycle  12 NSaved=  12.
 NSaved=12 IEnMin=12 EnMin= -153.092896456124     IErMin=12 ErrMin= 1.24D-08
 ErrMax= 1.24D-08  0.00D+00 EMaxC= 1.00D-01 BMatC= 3.25D-14 BMatP= 8.07D-13
 IDIUse=1 WtCom= 1.00D+00 WtEn= 0.00D+00
 Coeff-Com: -0.139D-06 0.594D-05-0.156D-05 0.823D-05 0.350D-04-0.790D-04
 Coeff-Com:  0.520D-04-0.894D-03-0.868D-02-0.180D-01 0.126D+00 0.902D+00
 Coeff:     -0.139D-06 0.594D-05-0.156D-05 0.823D-05 0.350D-04-0.790D-04
 Coeff:      0.520D-04-0.894D-03-0.868D-02-0.180D-01 0.126D+00 0.902D+00
 Gap=     0.072 Goal=   None    Shift=    0.000
 RMSDP=4.85D-08 MaxDP=2.77D-06 DE=-4.86D-12 OVMax= 5.62D-07

 Cycle  13  Pass 1  IDiag  1:
 RMSU=  4.55D-09    CP:  9.08D-01  5.99D-01  3.14D-01  9.63D-01  8.75D-01
                    CP:  1.12D+00  1.19D+00  1.71D+00  1.24D+00  1.46D+00
                    CP:  1.46D+00  1.16D+00
 E= -153.092896456122     Delta-E=        0.000000000002 Rises=F Damp=F
 DIIS: error= 7.80D-09 at cycle  13 NSaved=  13.
 NSaved=13 IEnMin=12 EnMin= -153.092896456124     IErMin=13 ErrMin= 7.80D-09
 ErrMax= 7.80D-09  0.00D+00 EMaxC= 1.00D-01 BMatC= 5.86D-15 BMatP= 3.25D-14
 IDIUse=1 WtCom= 1.00D+00 WtEn= 0.00D+00
 Coeff-Com: -0.129D-06 0.275D-05-0.130D-05 0.476D-05 0.102D-04 0.722D-05
 Coeff-Com:  0.310D-03 0.165D-03-0.331D-02-0.181D-01-0.200D-01 0.326D+00
 Coeff-Com:  0.715D+00
 Coeff:     -0.129D-06 0.275D-05-0.130D-05 0.476D-05 0.102D-04 0.722D-05
 Coeff:      0.310D-03 0.165D-03-0.331D-02-0.181D-01-0.200D-01 0.326D+00
 Coeff:      0.715D+00
 Gap=     0.072 Goal=   None    Shift=    0.000
 RMSDP=1.17D-08 MaxDP=5.42D-07 DE= 1.96D-12 OVMax= 1.58D-07

 Cycle  14  Pass 1  IDiag  1:
 RMSU=  1.10D-09    CP:  9.08D-01  5.99D-01  3.14D-01  9.63D-01  8.75D-01
                    CP:  1.12D+00  1.19D+00  1.71D+00  1.24D+00  1.48D+00
                    CP:  1.50D+00  1.31D+00  9.25D-01
 E= -153.092896456121     Delta-E=        0.000000000001 Rises=F Damp=F
 DIIS: error= 1.74D-09 at cycle  14 NSaved=  14.
 NSaved=14 IEnMin=12 EnMin= -153.092896456124     IErMin=14 ErrMin= 1.74D-09
 ErrMax= 1.74D-09  0.00D+00 EMaxC= 1.00D-01 BMatC= 3.15D-16 BMatP= 5.86D-15
 IDIUse=1 WtCom= 1.00D+00 WtEn= 0.00D+00
 Coeff-Com: -0.169D-07 0.194D-06-0.210D-06 0.328D-06-0.125D-05 0.427D-05
 Coeff-Com:  0.591D-04 0.755D-04-0.326D-03-0.294D-02-0.117D-01 0.260D-02
 Coeff-Com:  0.188D+00 0.825D+00
 Coeff:     -0.169D-07 0.194D-06-0.210D-06 0.328D-06-0.125D-05 0.427D-05
 Coeff:      0.591D-04 0.755D-04-0.326D-03-0.294D-02-0.117D-01 0.260D-02
 Coeff:      0.188D+00 0.825D+00
 Gap=     0.072 Goal=   None    Shift=    0.000
 RMSDP=3.14D-09 MaxDP=1.42D-07 DE= 1.42D-12 OVMax= 4.00D-08

 SCF Done:  E(RB3LYP) =  -153.092896456     A.U. after   14 cycles
            NFock= 14  Conv=0.31D-08     -V/T= 2.0031
 KE= 1.526255028307D+02 PE=-4.868181869023D+02 EE= 1.190914934310D+02
 Leave Link  502 at Wed Mar  6 14:36:01 2019, MaxMem=    33554432 cpu:       115.2
 (Enter /home/proyectos/fulerenos/M3C-v2.0/M3C-deps_CCC/g09-AM64L-G09RevC.01/l701.exe)
 Compute integral first derivatives.
 ... and contract with generalized density number  0.
 Leave Link  701 at Wed Mar  6 14:36:02 2019, MaxMem=    33554432 cpu:         0.7
 (Enter /home/proyectos/fulerenos/M3C-v2.0/M3C-deps_CCC/g09-AM64L-G09RevC.01/l702.exe)
 L702 exits ... SP integral derivatives will be done elsewhere.
 Leave Link  702 at Wed Mar  6 14:36:02 2019, MaxMem=    33554432 cpu:         0.0
 (Enter /home/proyectos/fulerenos/M3C-v2.0/M3C-deps_CCC/g09-AM64L-G09RevC.01/l703.exe)
 Compute integral first derivatives, UseDBF=F ICtDFT=           0.
 Integral derivatives from FoFJK, PRISM(SPDF).
 Calling FoFJK, ICntrl=      2127 FMM=F ISym2X=0 I1Cent= 0 IOpClX= 0 NMat=1 NMatS=1 NMatT=0.
 FoFJK:  IHMeth= 1 ICntrl=    2127 DoSepK=F KAlg= 0 I1Cent=   0 FoldK=F
 IRaf=         0 NMat=   1 IRICut=       1 DoRegI=T DoRafI=F ISym2E= 0.
 FoFCou: FMM=F IPFlag=           0 FMFlag=      100000 FMFlg1=         800
         NFxFlg=           0 DoJE=F BraDBF=F KetDBF=F FulRan=T
         wScrn=  0.000000 ICntrl=    2127 IOpCl=  0 I1Cent=           0 NGrid=           0
         NMat0=    1 NMatS0=      1 NMatT0=    0 NMatD0=    1 NMtDS0=    0 NMtDT0=    0
 Symmetry not used in FoFCou.
 Leave Link  703 at Wed Mar  6 14:36:15 2019, MaxMem=    33554432 cpu:        26.0
 (Enter /home/proyectos/fulerenos/M3C-v2.0/M3C-deps_CCC/g09-AM64L-G09RevC.01/l716.exe)
 Dipole        =-9.57190004D-01-5.77852752D-01-5.98217094D-01
 -------------------------------------------------------------------
 Center     Atomic                   Forces (Hartrees/Bohr)
 Number     Number              X              Y              Z
 -------------------------------------------------------------------
      1        6          -0.006163953   -0.012244085   -0.010512126
      2        6           0.059046134    0.026829175    0.034066569
      3        1          -0.007522778   -0.004440264   -0.005100160
      4        1          -0.002658872   -0.003291319   -0.003299949
      5        1          -0.002722343   -0.003517280   -0.003004141
      6        8          -0.039978187   -0.003336228   -0.012150193
 -------------------------------------------------------------------
 Cartesian Forces:  Max     0.059046134 RMS     0.020523876
 Leave Link  716 at Wed Mar  6 14:36:15 2019, MaxMem=    33554432 cpu:         0.1
 (Enter /home/proyectos/fulerenos/M3C-v2.0/M3C-deps_CCC/g09-AM64L-G09RevC.01/l103.exe)

 GradGradGradGradGradGradGradGradGradGradGradGradGradGradGradGradGradGrad
 Berny optimization.
 Using GEDIIS/GDIIS optimizer.
 FormGI is forming the generalized inverse of G from B-inverse, IUseBI=4.
 Internal  Forces:  Max     0.049784576 RMS     0.014268866
 Search for a local minimum.
 Step number   2 out of a maximum of  100
 All quantities printed in internal units (Hartrees-Bohrs-Radians)
 RMS Force = .14269D-01 SwitMx=.10000D-02 MixMth= 1
 Mixed Optimization -- RFO/linear search
 Update second derivatives using D2CorX and points    1    2
 DE= -1.51D-02 DEPred=-1.03D-02 R= 1.47D+00
 TightC=F SS=  1.41D+00  RLast= 2.52D-01 DXNew= 5.0454D-01 7.5661D-01
 Trust test= 1.47D+00 RLast= 2.52D-01 DXMaxT set to 5.05D-01
 The second derivative matrix:
                          R1        R2        R3        R4        R5
           R1           0.57362
           R2           0.00053   0.35498
           R3           0.07436  -0.00299   0.20556
           R4           0.00225   0.00117  -0.04001   0.54489
           R5           0.00224   0.00117  -0.04000   0.02835   0.54492
           A1           0.01727  -0.00115  -0.02930  -0.01988  -0.01988
           A2           0.00490   0.00072  -0.03701   0.01888   0.01889
           A3          -0.01073  -0.00017   0.04232  -0.00824  -0.00825
           A4          -0.00028   0.00015  -0.00317   0.00344   0.00345
           A5          -0.00029   0.00015  -0.00314   0.00345   0.00345
           A6          -0.00988   0.00026   0.02752   0.00218   0.00218
           D1           0.00036  -0.00005   0.00025  -0.00114  -0.00114
           D2          -0.00028   0.00005  -0.00029   0.00098   0.00098
           D3           0.00027  -0.00005   0.00029  -0.00096  -0.00096
           D4          -0.00036   0.00006  -0.00025   0.00116   0.00116
                          A1        A2        A3        A4        A5
           A1           0.16000
           A2          -0.01576   0.26212
           A3           0.01324  -0.00414   0.15841
           A4          -0.00200   0.00237  -0.00122   0.16041
           A5          -0.00200   0.00237  -0.00123   0.00041   0.16041
           A6           0.00591   0.00279  -0.00461   0.00005   0.00004
           D1           0.00047  -0.00082   0.00051  -0.00013  -0.00013
           D2          -0.00042   0.00070  -0.00043   0.00011   0.00011
           D3           0.00042  -0.00069   0.00042  -0.00011  -0.00011
           D4          -0.00047   0.00083  -0.00052   0.00013   0.00013
                          A6        D1        D2        D3        D4
           A6           0.15620
           D1           0.00009   0.01061
           D2          -0.00007  -0.00003   0.01060
           D3           0.00006   0.00003  -0.00003   0.01060
           D4          -0.00009  -0.00004   0.00003  -0.00003   0.01061
 ITU=  1  0
 Use linear search instead of GDIIS.
     Eigenvalues ---    0.01057   0.01057   0.03392   0.09799   0.16000
     Eigenvalues ---    0.16043   0.21261   0.25668   0.35502   0.51655
     Eigenvalues ---    0.57931   0.59593
 RFO step:  Lambda=-1.26290171D-02 EMin= 1.05697713D-02
 Quartic linear search produced a step of  2.00000.
 Iteration  1 RMS(Cart)=  0.11837955 RMS(Int)=  0.07270142
 Iteration  2 RMS(Cart)=  0.05937190 RMS(Int)=  0.01736039
 Iteration  3 RMS(Cart)=  0.02122053 RMS(Int)=  0.00227458
 Iteration  4 RMS(Cart)=  0.00001930 RMS(Int)=  0.00227453
 Iteration  5 RMS(Cart)=  0.00000006 RMS(Int)=  0.00227453
 ITry= 1 IFail=0 DXMaxC= 3.14D-01 DCOld= 1.00D+10 DXMaxT= 5.05D-01 DXLimC= 3.00D+00 Rises=F
 Variable       Old X    -DE/DX   Delta X   Delta X   Delta X     New X
                                 (Linear)    (Quad)   (Total)
    R1        2.46176  -0.01708  -0.09700  -0.01344  -0.11044   2.35133
    R2        2.05304   0.00045   0.00846  -0.00221   0.00625   2.05929
    R3        2.89460   0.04978   0.31660   0.15002   0.46662   3.36122
    R4        1.89474   0.00295   0.09086  -0.04741   0.04345   1.93819
    R5        1.89473   0.00295   0.09086  -0.04743   0.04343   1.93816
    A1        2.25156   0.00901   0.08012   0.11286   0.19297   2.44453
    A2        2.09159   0.00272   0.15811  -0.06815   0.08994   2.18153
    A3        1.94003  -0.01173  -0.23822  -0.04471  -0.28294   1.65709
    A4        2.04065   0.00218   0.02723  -0.01864   0.00509   2.04574
    A5        2.04050   0.00217   0.02710  -0.01870   0.00489   2.04539
    A6        1.90454  -0.00480  -0.12993  -0.05544  -0.19129   1.71325
    D1       -1.98852  -0.00135  -0.07569  -0.06612  -0.13969  -2.12821
    D2        1.98997   0.00135   0.07142   0.06523   0.13453   2.12450
    D3        1.15256  -0.00134  -0.07028  -0.06410  -0.13227   1.02030
    D4       -1.15213   0.00136   0.07683   0.06724   0.14196  -1.01018
         Item               Value     Threshold  Converged?
 Maximum Force            0.049785     0.000450     NO 
 RMS     Force            0.014269     0.000300     NO 
 Maximum Displacement     0.313855     0.001800     NO 
 RMS     Displacement     0.174109     0.001200     NO 
 Predicted change in Energy=-1.179300D-02
 Lowest energy point so far.  Saving SCF results.
 GradGradGradGradGradGradGradGradGradGradGradGradGradGradGradGradGradGrad

 Leave Link  103 at Wed Mar  6 14:36:15 2019, MaxMem=    33554432 cpu:         0.1
 (Enter /home/proyectos/fulerenos/M3C-v2.0/M3C-deps_CCC/g09-AM64L-G09RevC.01/l202.exe)
                          Input orientation:                          
 ---------------------------------------------------------------------
 Center     Atomic      Atomic             Coordinates (Angstroms)
 Number     Number       Type             X           Y           Z
 ---------------------------------------------------------------------
      1          6           0        1.433774    0.680591    0.816350
      2          6           0        1.103229   -0.247660    0.056550
      3          1           0        1.543369   -1.096510   -0.466176
      4          1           0       -0.971808   -1.438328   -0.344284
      5          1           0       -0.672255   -0.538277   -1.570148
      6          8           0       -0.543900   -0.529787   -0.552616
 ---------------------------------------------------------------------
                    Distance matrix (angstroms):
                    1          2          3          4          5
     1  C    0.000000
     2  C    1.244269   0.000000
     3  H    2.194304   1.089731   0.000000
     4  H    3.409357   2.425724   2.541222   0.000000
     5  H    3.408280   2.425479   2.537591   1.550022   0.000000
     6  O    2.692634   1.778683   2.164564   1.025648   1.025631
                    6
     6  O    0.000000
 Symmetry turned off by external request.
 Stoichiometry    C2H3O
 Rotational constants (GHZ):     70.8947603      8.4000011      7.7904862
 Leave Link  202 at Wed Mar  6 14:36:15 2019, MaxMem=    33554432 cpu:         0.0
 (Enter /home/proyectos/fulerenos/M3C-v2.0/M3C-deps_CCC/g09-AM64L-G09RevC.01/l301.exe)
 Standard basis: 6-311++G(3df,2p) (5D, 7F)
 Ernie: Thresh=  0.10000D-02 Tol=  0.10000D-05 Strict=F.
   147 basis functions,   210 primitive gaussians,   165 cartesian basis functions
    12 alpha electrons       12 beta electrons
       nuclear repulsion energy        58.8348673373 Hartrees.
 IExCor=  402 DFT=T Ex+Corr=B3LYP ExCW=0 ScaHFX=  0.200000
 ScaDFX=  0.800000  0.720000  1.000000  0.810000 ScalE2=  1.000000  1.000000
 IRadAn=      0 IRanWt=     -1 IRanGd=            0 ICorTp=0 IEmpDi=  4
 NAtoms=    6 NActive=    6 NUniq=    6 SFac= 1.00D+00 NAtFMM=   60 NAOKFM=F Big=F
 Integral buffers will be    131072 words long.
 Raffenetti 2 integral format.
 Two-electron integral symmetry is turned off.
 Leave Link  301 at Wed Mar  6 14:36:15 2019, MaxMem=    33554432 cpu:         0.1
 (Enter /home/proyectos/fulerenos/M3C-v2.0/M3C-deps_CCC/g09-AM64L-G09RevC.01/l302.exe)
 NPDir=0 NMtPBC=     1 NCelOv=     1 NCel=       1 NClECP=     1 NCelD=      1
         NCelK=      1 NCelE2=     1 NClLst=     1 CellRange=     0.0.
 One-electron integrals computed using PRISM.
 NBasis=   147 RedAO= T EigKep=  3.47D-05  NBF=   147
 NBsUse=   147 1.00D-06 EigRej= -1.00D+00 NBFU=   147
 Precomputing XC quadrature grid using
 IXCGrd= 4 IRadAn=           0 IRanWt=          -1 IRanGd=           0 AccXCQ= 0.00D+00.
 Generated NRdTot=       0 NPtTot=           0 NUsed=           0 NTot=          32
 NSgBfM=   165   165   165   165   165 MxSgAt=     6 MxSgA2=     6.
 Leave Link  302 at Wed Mar  6 14:36:16 2019, MaxMem=    33554432 cpu:         0.6
 (Enter /home/proyectos/fulerenos/M3C-v2.0/M3C-deps_CCC/g09-AM64L-G09RevC.01/l303.exe)
 DipDrv:  MaxL=1.
 Leave Link  303 at Wed Mar  6 14:36:16 2019, MaxMem=    33554432 cpu:         0.1
 (Enter /home/proyectos/fulerenos/M3C-v2.0/M3C-deps_CCC/g09-AM64L-G09RevC.01/l401.exe)
 Initial guess from the checkpoint file:  "/scratch/naguirre/gaussian/Gau-84736.chk"
 B after Tr=     0.074032    0.081739    0.077884
         Rot=    0.999957   -0.001379   -0.005168    0.007526 Ang=  -1.06 deg.
 Guess basis will be translated and rotated to current coordinates.
 JPrj=2 DoOrth=T DoCkMO=T.
 Generating alternative initial guess.
 ExpMin= 3.60D-02 ExpMax= 8.59D+03 ExpMxC= 1.30D+03 IAcc=3 IRadAn=         5 AccDes= 0.00D+00
 Harris functional with IExCor=  402 and IRadAn=       5 diagonalized for initial guess.
 HarFok:  IExCor=  402 AccDes= 0.00D+00 IRadAn=         5 IDoV= 1 UseB2=F ITyADJ=14
 ICtDFT=  3500011 ScaDFX=  1.000000  1.000000  1.000000  1.000000
 FoFCou: FMM=F IPFlag=           0 FMFlag=      100000 FMFlg1=           0
         NFxFlg=           0 DoJE=T BraDBF=F KetDBF=T FulRan=T
         wScrn=  0.000000 ICntrl=     500 IOpCl=  0 I1Cent=   200000004 NGrid=           0
         NMat0=    1 NMatS0=      1 NMatT0=    0 NMatD0=    1 NMtDS0=    0 NMtDT0=    0
 Symmetry not used in FoFCou.
 Harris En= -153.399208163452    
 Leave Link  401 at Wed Mar  6 14:36:18 2019, MaxMem=    33554432 cpu:         5.1
 (Enter /home/proyectos/fulerenos/M3C-v2.0/M3C-deps_CCC/g09-AM64L-G09RevC.01/l502.exe)
 Closed shell SCF:
 Using DIIS extrapolation, IDIIS=  1040.
 Two-electron integral symmetry not used.
 IVT=      102217 IEndB=      102217 NGot=    33554432 MDV=    33496246
 LenX=    33496246 LenY=    33468580
 Requested convergence on RMS density matrix=1.00D-08 within 128 cycles.
 Requested convergence on MAX density matrix=1.00D-06.
 Requested convergence on             energy=1.00D-06.
 No special actions if energy rises.
 Fock matrices will be formed incrementally for  20 cycles.

 Cycle   1  Pass 1  IDiag  1:
 FoFJK:  IHMeth= 1 ICntrl=       0 DoSepK=F KAlg= 0 I1Cent=   0 FoldK=F
 IRaf= 990000000 NMat=   1 IRICut=       1 DoRegI=T DoRafI=F ISym2E= 0.
 FoFCou: FMM=F IPFlag=           0 FMFlag=      100000 FMFlg1=           0
         NFxFlg=           0 DoJE=F BraDBF=F KetDBF=F FulRan=T
         wScrn=  0.000000 ICntrl=       0 IOpCl=  0 I1Cent=           0 NGrid=           0
         NMat0=    1 NMatS0=      1 NMatT0=    0 NMatD0=    1 NMtDS0=    0 NMtDT0=    0
 Symmetry not used in FoFCou.
 E= -153.075987881009    
 DIIS: error= 1.03D-02 at cycle   1 NSaved=   1.
 NSaved= 1 IEnMin= 1 EnMin= -153.075987881009     IErMin= 1 ErrMin= 1.03D-02
 ErrMax= 1.03D-02  0.00D+00 EMaxC= 1.00D-01 BMatC= 2.70D-02 BMatP= 2.70D-02
 IDIUse=3 WtCom= 8.97D-01 WtEn= 1.03D-01
 Coeff-Com:  0.100D+01
 Coeff-En:   0.100D+01
 Coeff:      0.100D+01
 Recover alternate guess density for next cycle.
 RMSDP=1.51D-02 MaxDP=7.93D-01              OVMax= 0.00D+00

 Cycle   2  Pass 1  IDiag  1:
 RMSU=  1.51D-02    CP:  1.02D+00
 E= -152.765185313041     Delta-E=        0.310802567967 Rises=F Damp=F
 Switch densities from cycles 1 and 2 for lowest energy.
 DIIS: error= 4.03D-02 at cycle   2 NSaved=   2.
 NSaved= 2 IEnMin= 1 EnMin= -153.075987881009     IErMin= 1 ErrMin= 1.03D-02
 ErrMax= 4.03D-02  0.00D+00 EMaxC= 1.00D+00 BMatC= 2.88D-01 BMatP= 2.70D-02
 IDIUse=1 WtCom= 1.00D+00 WtEn= 0.00D+00
 Coeff-Com:  0.904D+00 0.958D-01
 Coeff:      0.904D+00 0.958D-01
 Gap=     0.236 Goal=   None    Shift=    0.000
 RMSDP=6.92D-03 MaxDP=2.27D-01 DE= 3.11D-01 OVMax= 4.27D-01

 Cycle   3  Pass 1  IDiag  1:
 RMSU=  4.66D-03    CP:  9.21D-01  3.23D-01
 E= -153.116529180754     Delta-E=       -0.351343867713 Rises=F Damp=F
 DIIS: error= 4.29D-03 at cycle   3 NSaved=   3.
 NSaved= 3 IEnMin= 3 EnMin= -153.116529180754     IErMin= 3 ErrMin= 4.29D-03
 ErrMax= 4.29D-03  0.00D+00 EMaxC= 1.00D+00 BMatC= 2.60D-03 BMatP= 2.70D-02
 IDIUse=1 WtCom= 1.00D+00 WtEn= 0.00D+00
 Coeff-Com:  0.841D-01 0.271D-01 0.889D+00
 Coeff:      0.841D-01 0.271D-01 0.889D+00
 Gap=     0.076 Goal=   None    Shift=    0.000
 RMSDP=1.41D-03 MaxDP=4.44D-02 DE=-3.51D-01 OVMax= 4.03D-02

 Cycle   4  Pass 1  IDiag  1:
 RMSU=  1.04D-03    CP:  9.30D-01  2.68D-01  9.07D-01
 E= -153.114585174956     Delta-E=        0.001944005798 Rises=F Damp=F
 DIIS: error= 6.19D-03 at cycle   4 NSaved=   4.
 NSaved= 4 IEnMin= 3 EnMin= -153.116529180754     IErMin= 3 ErrMin= 4.29D-03
 ErrMax= 6.19D-03  0.00D+00 EMaxC= 1.00D+00 BMatC= 4.04D-03 BMatP= 2.60D-03
 IDIUse=1 WtCom= 1.00D+00 WtEn= 0.00D+00
 Coeff-Com: -0.216D-01 0.202D-01 0.559D+00 0.443D+00
 Coeff:     -0.216D-01 0.202D-01 0.559D+00 0.443D+00
 Gap=     0.082 Goal=   None    Shift=    0.000
 RMSDP=1.08D-03 MaxDP=3.20D-02 DE= 1.94D-03 OVMax= 5.46D-02

 Cycle   5  Pass 1  IDiag  1:
 RMSU=  6.02D-04    CP:  9.22D-01  3.11D-01  9.96D-01  5.81D-01
 E= -153.118751287746     Delta-E=       -0.004166112790 Rises=F Damp=F
 DIIS: error= 8.75D-04 at cycle   5 NSaved=   5.
 NSaved= 5 IEnMin= 5 EnMin= -153.118751287746     IErMin= 5 ErrMin= 8.75D-04
 ErrMax= 8.75D-04  0.00D+00 EMaxC= 1.00D+00 BMatC= 9.94D-05 BMatP= 2.60D-03
 IDIUse=1 WtCom= 1.00D+00 WtEn= 0.00D+00
 Coeff-Com: -0.596D-02-0.192D-02 0.743D-01 0.153D+00 0.780D+00
 Coeff:     -0.596D-02-0.192D-02 0.743D-01 0.153D+00 0.780D+00
 Gap=     0.082 Goal=   None    Shift=    0.000
 RMSDP=2.77D-04 MaxDP=1.16D-02 DE=-4.17D-03 OVMax= 1.02D-02

 Cycle   6  Pass 1  IDiag  1:
 RMSU=  2.06D-04    CP:  9.18D-01  3.10D-01  9.94D-01  7.33D-01  9.09D-01
 E= -153.118833202815     Delta-E=       -0.000081915069 Rises=F Damp=F
 DIIS: error= 5.55D-04 at cycle   6 NSaved=   6.
 NSaved= 6 IEnMin= 6 EnMin= -153.118833202815     IErMin= 6 ErrMin= 5.55D-04
 ErrMax= 5.55D-04  0.00D+00 EMaxC= 1.00D+00 BMatC= 4.88D-05 BMatP= 9.94D-05
 IDIUse=1 WtCom= 1.00D+00 WtEn= 0.00D+00
 Coeff-Com: -0.360D-02-0.279D-02 0.405D-02 0.774D-01 0.566D+00 0.359D+00
 Coeff:     -0.360D-02-0.279D-02 0.405D-02 0.774D-01 0.566D+00 0.359D+00
 Gap=     0.082 Goal=   None    Shift=    0.000
 RMSDP=9.25D-05 MaxDP=2.75D-03 DE=-8.19D-05 OVMax= 3.72D-03

 Cycle   7  Pass 1  IDiag  1:
 RMSU=  6.40D-05    CP:  9.16D-01  3.12D-01  9.99D-01  7.24D-01  9.73D-01
                    CP:  1.08D+00
 E= -153.118882399804     Delta-E=       -0.000049196990 Rises=F Damp=F
 DIIS: error= 1.36D-04 at cycle   7 NSaved=   7.
 NSaved= 7 IEnMin= 7 EnMin= -153.118882399804     IErMin= 7 ErrMin= 1.36D-04
 ErrMax= 1.36D-04  0.00D+00 EMaxC= 1.00D+00 BMatC= 1.74D-06 BMatP= 4.88D-05
 IDIUse=1 WtCom= 1.00D+00 WtEn= 0.00D+00
 Coeff-Com:  0.205D-03-0.125D-02-0.164D-01 0.633D-02 0.987D-01 0.164D+00
 Coeff-Com:  0.748D+00
 Coeff:      0.205D-03-0.125D-02-0.164D-01 0.633D-02 0.987D-01 0.164D+00
 Coeff:      0.748D+00
 Gap=     0.082 Goal=   None    Shift=    0.000
 RMSDP=5.24D-05 MaxDP=2.04D-03 DE=-4.92D-05 OVMax= 1.23D-03

 Cycle   8  Pass 1  IDiag  1:
 RMSU=  1.68D-05    CP:  9.15D-01  3.12D-01  9.99D-01  7.37D-01  1.01D+00
                    CP:  1.24D+00  1.09D+00
 E= -153.118884169452     Delta-E=       -0.000001769648 Rises=F Damp=F
 DIIS: error= 4.07D-05 at cycle   8 NSaved=   8.
 NSaved= 8 IEnMin= 8 EnMin= -153.118884169452     IErMin= 8 ErrMin= 4.07D-05
 ErrMax= 4.07D-05  0.00D+00 EMaxC= 1.00D+00 BMatC= 2.07D-07 BMatP= 1.74D-06
 IDIUse=1 WtCom= 1.00D+00 WtEn= 0.00D+00
 Coeff-Com:  0.255D-03-0.534D-03-0.322D-02-0.261D-02-0.249D-01 0.350D-02
 Coeff-Com:  0.183D+00 0.844D+00
 Coeff:      0.255D-03-0.534D-03-0.322D-02-0.261D-02-0.249D-01 0.350D-02
 Coeff:      0.183D+00 0.844D+00
 Gap=     0.082 Goal=   None    Shift=    0.000
 RMSDP=2.49D-05 MaxDP=9.99D-04 DE=-1.77D-06 OVMax= 4.49D-04

 Cycle   9  Pass 1  IDiag  1:
 RMSU=  4.07D-06    CP:  9.15D-01  3.12D-01  9.99D-01  7.46D-01  1.02D+00
                    CP:  1.32D+00  1.22D+00  1.04D+00
 E= -153.118884453795     Delta-E=       -0.000000284343 Rises=F Damp=F
 DIIS: error= 9.69D-06 at cycle   9 NSaved=   9.
 NSaved= 9 IEnMin= 9 EnMin= -153.118884453795     IErMin= 9 ErrMin= 9.69D-06
 ErrMax= 9.69D-06  0.00D+00 EMaxC= 1.00D+00 BMatC= 1.02D-08 BMatP= 2.07D-07
 IDIUse=1 WtCom= 1.00D+00 WtEn= 0.00D+00
 Coeff-Com:  0.428D-04-0.233D-04-0.442D-03-0.454D-03-0.924D-02-0.141D-02
 Coeff-Com:  0.330D-01 0.250D+00 0.728D+00
 Coeff:      0.428D-04-0.233D-04-0.442D-03-0.454D-03-0.924D-02-0.141D-02
 Coeff:      0.330D-01 0.250D+00 0.728D+00
 Gap=     0.082 Goal=   None    Shift=    0.000
 RMSDP=7.72D-06 MaxDP=4.23D-04 DE=-2.84D-07 OVMax= 1.50D-04

 Cycle  10  Pass 1  IDiag  1:
 RMSU=  1.19D-06    CP:  9.14D-01  3.13D-01  9.99D-01  7.45D-01  1.02D+00
                    CP:  1.34D+00  1.26D+00  1.14D+00  8.59D-01
 E= -153.118884465392     Delta-E=       -0.000000011596 Rises=F Damp=F
 DIIS: error= 3.29D-06 at cycle  10 NSaved=  10.
 NSaved=10 IEnMin=10 EnMin= -153.118884465392     IErMin=10 ErrMin= 3.29D-06
 ErrMax= 3.29D-06  0.00D+00 EMaxC= 1.00D+00 BMatC= 9.66D-10 BMatP= 1.02D-08
 IDIUse=1 WtCom= 1.00D+00 WtEn= 0.00D+00
 Coeff-Com:  0.119D-05 0.107D-04 0.106D-03-0.993D-04-0.262D-02-0.107D-02
 Coeff-Com: -0.634D-02 0.148D-01 0.220D+00 0.776D+00
 Coeff:      0.119D-05 0.107D-04 0.106D-03-0.993D-04-0.262D-02-0.107D-02
 Coeff:     -0.634D-02 0.148D-01 0.220D+00 0.776D+00
 Gap=     0.082 Goal=   None    Shift=    0.000
 RMSDP=2.09D-06 MaxDP=8.00D-05 DE=-1.16D-08 OVMax= 3.64D-05

 Cycle  11  Pass 1  IDiag  1:
 RMSU=  2.18D-07    CP:  9.14D-01  3.13D-01  9.99D-01  7.46D-01  1.02D+00
                    CP:  1.35D+00  1.27D+00  1.16D+00  9.50D-01  1.05D+00
 E= -153.118884466924     Delta-E=       -0.000000001532 Rises=F Damp=F
 DIIS: error= 3.90D-07 at cycle  11 NSaved=  11.
 NSaved=11 IEnMin=11 EnMin= -153.118884466924     IErMin=11 ErrMin= 3.90D-07
 ErrMax= 3.90D-07  0.00D+00 EMaxC= 1.00D+00 BMatC= 1.60D-11 BMatP= 9.66D-10
 IDIUse=1 WtCom= 1.00D+00 WtEn= 0.00D+00
 Coeff-Com: -0.334D-06 0.317D-05 0.103D-04-0.167D-05-0.123D-03-0.203D-04
 Coeff-Com: -0.192D-02-0.574D-02 0.234D-01 0.210D+00 0.774D+00
 Coeff:     -0.334D-06 0.317D-05 0.103D-04-0.167D-05-0.123D-03-0.203D-04
 Coeff:     -0.192D-02-0.574D-02 0.234D-01 0.210D+00 0.774D+00
 Gap=     0.082 Goal=   None    Shift=    0.000
 RMSDP=5.11D-07 MaxDP=2.61D-05 DE=-1.53D-09 OVMax= 5.26D-06

 Cycle  12  Pass 1  IDiag  1:
 RMSU=  6.58D-08    CP:  9.14D-01  3.13D-01  9.99D-01  7.46D-01  1.02D+00
                    CP:  1.35D+00  1.27D+00  1.16D+00  9.60D-01  1.12D+00
                    CP:  1.22D+00
 E= -153.118884466948     Delta-E=       -0.000000000024 Rises=F Damp=F
[...]
 Coeff:      0.107D-02 0.273D-01 0.159D+00 0.816D+00
 Gap=     0.088 Goal=   None    Shift=    0.000
 RMSDP=3.91D-09 MaxDP=1.27D-07 DE=-1.59D-12 OVMax= 1.34D-07

 SCF Done:  E(RB3LYP) =  -153.211219845     A.U. after   10 cycles
            NFock= 10  Conv=0.39D-08     -V/T= 2.0040
 KE= 1.526063313904D+02 PE=-4.500012227639D+02 EE= 1.010610331602D+02
 Leave Link  502 at Wed Mar  6 14:58:45 2019, MaxMem=    33554432 cpu:        29.8
 (Enter /home/proyectos/fulerenos/M3C-v2.0/M3C-deps_CCC/g09-AM64L-G09RevC.01/l701.exe)
 Compute integral first derivatives.
 ... and contract with generalized density number  0.
 Leave Link  701 at Wed Mar  6 14:58:45 2019, MaxMem=    33554432 cpu:         0.4
 (Enter /home/proyectos/fulerenos/M3C-v2.0/M3C-deps_CCC/g09-AM64L-G09RevC.01/l702.exe)
 L702 exits ... SP integral derivatives will be done elsewhere.
 Leave Link  702 at Wed Mar  6 14:58:45 2019, MaxMem=    33554432 cpu:         0.0
 (Enter /home/proyectos/fulerenos/M3C-v2.0/M3C-deps_CCC/g09-AM64L-G09RevC.01/l703.exe)
 Compute integral first derivatives, UseDBF=F ICtDFT=           0.
 Integral derivatives from FoFJK, PRISM(SPDF).
 Calling FoFJK, ICntrl=      2127 FMM=F ISym2X=0 I1Cent= 0 IOpClX= 0 NMat=1 NMatS=1 NMatT=0.
 FoFJK:  IHMeth= 1 ICntrl=    2127 DoSepK=F KAlg= 0 I1Cent=   0 FoldK=F
 IRaf=         0 NMat=   1 IRICut=       1 DoRegI=T DoRafI=F ISym2E= 0.
 FoFCou: FMM=F IPFlag=           0 FMFlag=      100000 FMFlg1=         800
         NFxFlg=           0 DoJE=F BraDBF=F KetDBF=F FulRan=T
         wScrn=  0.000000 ICntrl=    2127 IOpCl=  0 I1Cent=           0 NGrid=           0
         NMat0=    1 NMatS0=      1 NMatT0=    0 NMatD0=    1 NMtDS0=    0 NMtDT0=    0
 Symmetry not used in FoFCou.
 Leave Link  703 at Wed Mar  6 14:58:49 2019, MaxMem=    33554432 cpu:         8.2
 (Enter /home/proyectos/fulerenos/M3C-v2.0/M3C-deps_CCC/g09-AM64L-G09RevC.01/l716.exe)
 Dipole        =-5.49187170D+00-1.89370137D+00-2.66219988D+00
 -------------------------------------------------------------------
 Center     Atomic                   Forces (Hartrees/Bohr)
 Number     Number              X              Y              Z
 -------------------------------------------------------------------
      1        6          -0.000881239   -0.000622960   -0.000680497
      2        6           0.003040548    0.000430290    0.001028403
      3        1          -0.001843168   -0.000119780   -0.000509781
      4        1           0.000263503   -0.012842955    0.012997886
      5        1          -0.005436880    0.009194143    0.012647398
      6        8           0.004857236    0.003961262   -0.025483409
 -------------------------------------------------------------------
 Cartesian Forces:  Max     0.025483409 RMS     0.008539060
 Leave Link  716 at Wed Mar  6 14:58:49 2019, MaxMem=    33554432 cpu:         0.0
 (Enter /home/proyectos/fulerenos/M3C-v2.0/M3C-deps_CCC/g09-AM64L-G09RevC.01/l103.exe)

 GradGradGradGradGradGradGradGradGradGradGradGradGradGradGradGradGradGrad
 Berny optimization.
 Using GEDIIS/GDIIS optimizer.
 FormGI is forming the generalized inverse of G from B-inverse, IUseBI=4.
 Internal  Forces:  Max     0.016082114 RMS     0.006449117
 Search for a local minimum.
 Step number  46 out of a maximum of  100
 All quantities printed in internal units (Hartrees-Bohrs-Radians)
 RMS Force = .64491D-02 SwitMx=.10000D-02 MixMth= 1
 Mixed Optimization -- RFO/linear search
 Update second derivatives using D2CorX and points   44   45   46
 DE= -1.75D-04 DEPred=-1.87D-04 R= 9.33D-01
 TightC=F SS=  1.41D+00  RLast= 8.96D-02 DXNew= 4.2426D+00 2.6895D-01
 Trust test= 9.33D-01 RLast= 8.96D-02 DXMaxT set to 2.52D+00
 The second derivative matrix:
                          R1        R2        R3        R4        R5
           R1           0.86704
           R2          -0.02412   0.42052
           R3           0.00195  -0.00919   0.00534
           R4           0.00320  -0.05540  -0.01414   0.95930
           R5          -0.01423   0.05228   0.00712  -0.21202   0.73798
           A1           0.00723  -0.03130   0.01136   0.06621  -0.06451
           A2          -0.00650   0.03961  -0.01245  -0.07661   0.08117
           A3           0.01765  -0.02618   0.00275   0.07119  -0.11700
           A4          -0.00205   0.01209   0.00398  -0.07181   0.04343
           A5           0.00189   0.01186   0.00028  -0.07541   0.07788
           A6           0.00309  -0.02559  -0.00458   0.11650  -0.05697
           D1          -0.00138  -0.00609  -0.00268   0.07971  -0.05833
           D2          -0.00036   0.00607   0.00226  -0.08009   0.05705
           D3          -0.00260  -0.00968  -0.00291   0.07891  -0.05701
           D4           0.00261   0.00969   0.00288  -0.07896   0.05722
                          A1        A2        A3        A4        A5
           A1           0.14560
           A2          -0.13394   0.15994
           A3          -0.03503   0.02983   0.16216
           A4          -0.01514   0.01766  -0.00984   0.10088
           A5          -0.00860   0.01352  -0.01301  -0.05424   0.10627
           A6           0.03332  -0.03887   0.02524  -0.03355  -0.05154
           D1           0.00176  -0.00584   0.00347  -0.02201  -0.02770
           D2          -0.00264   0.00510  -0.00322   0.02200   0.02742
           D3           0.00627  -0.00888   0.00783  -0.02028  -0.02597
           D4          -0.00639   0.00901  -0.00809   0.02032   0.02599
                          A6        D1        D2        D3        D4
           A6           0.11335
           D1           0.05449   0.04496
           D2          -0.05352  -0.03463   0.04451
           D3           0.05429   0.03438  -0.03421   0.03408
           D4          -0.05438  -0.03439   0.03422  -0.03409   0.03411
 ITU=  1  1  1  1  0  0  1  0  0  0  0  0  0  0  0  0
 Use linear search instead of GDIIS.
     Eigenvalues ---    0.00000   0.00462   0.01000   0.01069   0.01872
     Eigenvalues ---    0.15435   0.17934   0.20238   0.41042   0.61721
     Eigenvalues ---    0.86847   1.18189
 RFO step:  Lambda=-1.12516499D-03 EMin= 1.26924928D-07
 Quartic linear search produced a step of  0.78820.
 New curvilinear step failed, DQL= 4.43D+00 SP=-6.37D-02.
 ITry= 1 IFail=1 DXMaxC= 0.00D+00 DCOld= 1.00D+10 DXMaxT= 2.52D+00 DXLimC= 3.00D+00 Rises=F
 New curvilinear step failed, DQL= 4.43D+00 SP=-7.38D-02.
 ITry= 2 IFail=1 DXMaxC= 0.00D+00 DCOld= 1.00D+10 DXMaxT= 2.52D+00 DXLimC= 3.00D+00 Rises=F
 New curvilinear step failed, DQL= 4.43D+00 SP=-8.49D-02.
 ITry= 3 IFail=1 DXMaxC= 0.00D+00 DCOld= 1.00D+10 DXMaxT= 2.52D+00 DXLimC= 3.00D+00 Rises=F
 New curvilinear step failed, DQL= 4.43D+00 SP=-9.75D-02.
 ITry= 4 IFail=1 DXMaxC= 0.00D+00 DCOld= 1.00D+10 DXMaxT= 2.52D+00 DXLimC= 3.00D+00 Rises=F
 New curvilinear step failed, DQL= 4.43D+00 SP=-1.12D-01.
 ITry= 5 IFail=1 DXMaxC= 0.00D+00 DCOld= 1.00D+10 DXMaxT= 2.52D+00 DXLimC= 3.00D+00 Rises=F
 New curvilinear step failed, DQL= 4.43D+00 SP=-1.28D-01.
 ITry= 6 IFail=1 DXMaxC= 0.00D+00 DCOld= 1.00D+10 DXMaxT= 2.52D+00 DXLimC= 3.00D+00 Rises=F
 New curvilinear step failed, DQL= 4.43D+00 SP=-1.47D-01.
 ITry= 7 IFail=1 DXMaxC= 0.00D+00 DCOld= 1.00D+10 DXMaxT= 2.52D+00 DXLimC= 3.00D+00 Rises=F
 New curvilinear step failed, DQL= 4.43D+00 SP=-1.58D-01.
 ITry= 8 IFail=1 DXMaxC= 0.00D+00 DCOld= 1.00D+10 DXMaxT= 2.52D+00 DXLimC= 3.00D+00 Rises=F
 SLEqS3 Cycle:    33 Max:0.330942E-01 RMS: 3932.95     Conv:0.993292E-02
 New curvilinear step failed, DQL= 4.43D+00 SP=-1.84D-01.
 ITry= 9 IFail=1 DXMaxC= 0.00D+00 DCOld= 1.00D+10 DXMaxT= 2.52D+00 DXLimC= 3.00D+00 Rises=F
 New curvilinear step failed, DQL= 4.43D+00 SP=-2.13D-01.
 ITry=10 IFail=1 DXMaxC= 0.00D+00 DCOld= 1.00D+10 DXMaxT= 2.52D+00 DXLimC= 3.00D+00 Rises=F
 RedQX1 iteration     1 Try  1 RMS(Cart)=  0.01070212 RMS(Int)=  1.62844588 XScale=  0.03569342
 RedQX1 iteration     2 Try  1 RMS(Cart)=  0.00214042 RMS(Int)=  1.15303831 XScale=  0.05044782
 RedQX1 iteration     3 Try  1 RMS(Cart)=  0.00042808 RMS(Int)=  1.15326519 XScale=  0.05044165
 RedQX1 iteration     4 Try  1 RMS(Cart)=  0.00008562 RMS(Int)=  1.15331089 XScale=  0.05044041
 RedQX1 iteration     5 Try  1 RMS(Cart)=  0.00001712 RMS(Int)=  1.15332005 XScale=  0.05044016
 RedQX1 iteration     6 Try  1 RMS(Cart)=  0.00000342 RMS(Int)=  1.13549880 XScale=  0.05044011
 RedQX1 iteration     7 Try  1 RMS(Cart)=  0.00000068 RMS(Int)=  0.05786120 XScale=************
 RedQX1 iteration     7 Try  2 RMS(Cart)=  0.00000068 RMS(Int)=  1.13549878 XScale=  0.05044012
 RedQX1 iteration     8 Try  1 RMS(Cart)=  0.00000068 RMS(Int)=  1.13549878 XScale=  0.05044012
 RedQX1 iteration     9 Try  1 RMS(Cart)=  0.00000014 RMS(Int)=  1.13549489 XScale=  0.05044029
 RedQX1 iteration    10 Try  1 RMS(Cart)=  0.00000003 RMS(Int)=  0.05786104 XScale=************
 B after Tr=    -0.000000    0.000000   -0.000000
         Rot=    1.000000    0.000000    0.000000    0.000000 Ang=   0.00 deg.
 Variable       Old X    -DE/DX   Delta X   Delta X   Delta X     New X
                                 (Linear)    (Quad)   (Total)
    R1        2.34246  -0.00124  -0.00013  -0.00137  -0.00000   2.34246
    R2        2.01347   0.00181   0.00000   0.01283   0.00000   2.01347
    R3        8.37279   0.00010   0.00002   0.11250   0.00000   8.37279
    R4        1.79173   0.01608  -0.00144   0.00581   0.00000   1.79173
    R5        1.84847  -0.01421   0.00224  -0.00753  -0.00000   1.84847
    A1        3.13860   0.00023   0.00593   0.03403   0.00000   3.13860
    A2        3.13860   0.00050   0.00593   0.03279   0.00000   3.13860
    A3        0.00000   0.00066   0.00000  -0.00302  -0.00000   0.00000
    A4        1.64409  -0.00490  -0.04258  -0.08337  -0.00000   1.64409
    A5        1.61648  -0.00521  -0.04491  -0.07801  -0.00000   1.61647
    A6        1.74416   0.00764  -0.01591   0.01086  -0.00000   1.74416
    D1       -2.19207   0.00348  -0.01151   0.00173  -0.00000  -2.19207
    D2        2.34290  -0.00348   0.01390   0.00225   0.00000   2.34290
    D3        2.95368   0.00348  -0.00309  -0.04560  -0.00001   2.95367
    D4        1.20546  -0.00348   0.02231  -0.04509  -0.00001   1.20546
         Item               Value     Threshold  Converged?
 Maximum Force            0.016082     0.000450     NO 
 RMS     Force            0.006449     0.000300     NO 
 Maximum Displacement     0.000002     0.001800     YES
 RMS     Displacement     0.000001     0.001200     YES
 Predicted change in Energy=-1.659129D-08
 Lowest energy point so far.  Saving SCF results.
 GradGradGradGradGradGradGradGradGradGradGradGradGradGradGradGradGradGrad

 Leave Link  103 at Wed Mar  6 14:58:49 2019, MaxMem=    33554432 cpu:         0.0
 (Enter /home/proyectos/fulerenos/M3C-v2.0/M3C-deps_CCC/g09-AM64L-G09RevC.01/l202.exe)
                          Input orientation:                          
 ---------------------------------------------------------------------
 Center     Atomic      Atomic             Coordinates (Angstroms)
 Number     Number       Type             X           Y           Z
 ---------------------------------------------------------------------
      1          6           0        3.116645    0.714612    1.243797
      2          6           0        2.072603    0.320230    0.704369
      3          1           0        1.173548   -0.016518    0.242255
      4          1           0       -1.557569   -1.978351   -0.933810
      5          1           0       -1.246792   -1.129843   -2.099653
      6          8           0       -1.666028   -1.080101   -1.217283
 ---------------------------------------------------------------------
                    Distance matrix (angstroms):
                    1          2          3          4          5
     1  C    0.000000
     2  C    1.239574   0.000000
     3  H    2.305052   1.065480   0.000000
     4  H    5.817413   4.598396   3.562431   0.000000
     5  H    5.798298   4.580790   3.547122   1.475038   0.000000
     6  O    5.670262   4.430692   3.365212   0.948142   0.978166
                    6
     6  O    0.000000
 Symmetry turned off by external request.
 Stoichiometry    C2H3O
 Rotational constants (GHZ):    284.3584177      1.8491762      1.8463459
 Leave Link  202 at Wed Mar  6 14:58:49 2019, MaxMem=    33554432 cpu:         0.0
 (Enter /home/proyectos/fulerenos/M3C-v2.0/M3C-deps_CCC/g09-AM64L-G09RevC.01/l301.exe)
 Standard basis: 6-311++G(3df,2p) (5D, 7F)
 Ernie: Thresh=  0.10000D-02 Tol=  0.10000D-05 Strict=F.
   147 basis functions,   210 primitive gaussians,   165 cartesian basis functions
    12 alpha electrons       12 beta electrons
       nuclear repulsion energy        43.1226367863 Hartrees.
 IExCor=  402 DFT=T Ex+Corr=B3LYP ExCW=0 ScaHFX=  0.200000
 ScaDFX=  0.800000  0.720000  1.000000  0.810000 ScalE2=  1.000000  1.000000
 IRadAn=      0 IRanWt=     -1 IRanGd=            0 ICorTp=0 IEmpDi=  4
 NAtoms=    6 NActive=    6 NUniq=    6 SFac= 1.00D+00 NAtFMM=   60 NAOKFM=F Big=F
 Integral buffers will be    131072 words long.
 Raffenetti 2 integral format.
 Two-electron integral symmetry is turned off.
 Leave Link  301 at Wed Mar  6 14:58:49 2019, MaxMem=    33554432 cpu:         0.1
 (Enter /home/proyectos/fulerenos/M3C-v2.0/M3C-deps_CCC/g09-AM64L-G09RevC.01/l302.exe)
 NPDir=0 NMtPBC=     1 NCelOv=     1 NCel=       1 NClECP=     1 NCelD=      1
         NCelK=      1 NCelE2=     1 NClLst=     1 CellRange=     0.0.
 One-electron integrals computed using PRISM.
 NBasis=   147 RedAO= T EigKep=  2.60D-05  NBF=   147
 NBsUse=   147 1.00D-06 EigRej= -1.00D+00 NBFU=   147
 Precomputing XC quadrature grid using
 IXCGrd= 4 IRadAn=           0 IRanWt=          -1 IRanGd=           0 AccXCQ= 0.00D+00.
 Generated NRdTot=       0 NPtTot=           0 NUsed=           0 NTot=          32
 NSgBfM=   165   165   165   165   165 MxSgAt=     6 MxSgA2=     6.
 Leave Link  302 at Wed Mar  6 14:58:49 2019, MaxMem=    33554432 cpu:         0.4
 (Enter /home/proyectos/fulerenos/M3C-v2.0/M3C-deps_CCC/g09-AM64L-G09RevC.01/l303.exe)
 DipDrv:  MaxL=1.
 Leave Link  303 at Wed Mar  6 14:58:49 2019, MaxMem=    33554432 cpu:         0.0
 (Enter /home/proyectos/fulerenos/M3C-v2.0/M3C-deps_CCC/g09-AM64L-G09RevC.01/l401.exe)
 Initial guess from the checkpoint file:  "/scratch/naguirre/gaussian/Gau-84736.chk"
 B after Tr=    -0.000000   -0.000000   -0.000000
         Rot=    1.000000    0.000000   -0.000000    0.000000 Ang=   0.00 deg.
 Guess basis will be translated and rotated to current coordinates.
 JPrj=2 DoOrth=T DoCkMO=T.
 Leave Link  401 at Wed Mar  6 14:58:50 2019, MaxMem=    33554432 cpu:         0.2
 (Enter /home/proyectos/fulerenos/M3C-v2.0/M3C-deps_CCC/g09-AM64L-G09RevC.01/l502.exe)
 Closed shell SCF:
 Using DIIS extrapolation, IDIIS=  1040.
 Two-electron integral symmetry not used.
 IVT=      102217 IEndB=      102217 NGot=    33554432 MDV=    33496246
 LenX=    33496246 LenY=    33468580
 Requested convergence on RMS density matrix=1.00D-08 within 128 cycles.
 Requested convergence on MAX density matrix=1.00D-06.
 Requested convergence on             energy=1.00D-06.
 No special actions if energy rises.
 Fock matrices will be formed incrementally for  20 cycles.

 Cycle   1  Pass 1  IDiag  1:
 FoFJK:  IHMeth= 1 ICntrl=       0 DoSepK=F KAlg= 0 I1Cent=   0 FoldK=F
 IRaf= 910000000 NMat=   1 IRICut=       1 DoRegI=T DoRafI=F ISym2E= 0.
 FoFCou: FMM=F IPFlag=           0 FMFlag=      100000 FMFlg1=           0
         NFxFlg=           0 DoJE=F BraDBF=F KetDBF=F FulRan=T
         wScrn=  0.000000 ICntrl=       0 IOpCl=  0 I1Cent=           0 NGrid=           0
         NMat0=    1 NMatS0=      1 NMatT0=    0 NMatD0=    1 NMtDS0=    0 NMtDT0=    0
 Symmetry not used in FoFCou.
 E= -153.211219861742    
 DIIS: error= 1.06D-07 at cycle   1 NSaved=   1.
 NSaved= 1 IEnMin= 1 EnMin= -153.211219861742     IErMin= 1 ErrMin= 1.06D-07
 ErrMax= 1.06D-07  0.00D+00 EMaxC= 1.00D-01 BMatC= 1.09D-12 BMatP= 1.09D-12
 IDIUse=1 WtCom= 1.00D+00 WtEn= 0.00D+00
 Coeff-Com:  0.100D+01
 Coeff:      0.100D+01
 Gap=     0.222 Goal=   None    Shift=    0.000
 RMSDP=1.44D-08 MaxDP=3.10D-07              OVMax= 4.67D-07

 Cycle   2  Pass 1  IDiag  1:
 RMSU=  1.44D-08    CP:  1.00D+00
 E= -153.211219861742     Delta-E=        0.000000000000 Rises=F Damp=F
 DIIS: error= 1.82D-08 at cycle   2 NSaved=   2.
 NSaved= 2 IEnMin= 1 EnMin= -153.211219861742     IErMin= 2 ErrMin= 1.82D-08
 ErrMax= 1.82D-08  0.00D+00 EMaxC= 1.00D-01 BMatC= 3.14D-14 BMatP= 1.09D-12
 IDIUse=1 WtCom= 1.00D+00 WtEn= 0.00D+00
 Coeff-Com: -0.192D-01 0.102D+01
 Coeff:     -0.192D-01 0.102D+01
 Gap=     0.088 Goal=   None    Shift=    0.000
 RMSDP=1.67D-09 MaxDP=4.47D-08 DE= 0.00D+00 OVMax= 8.01D-08

 SCF Done:  E(RB3LYP) =  -153.211219862     A.U. after    2 cycles
            NFock=  2  Conv=0.17D-08     -V/T= 2.0040
 KE= 1.526063302891D+02 PE=-4.500012204431D+02 EE= 1.010610335060D+02
 Leave Link  502 at Wed Mar  6 14:58:53 2019, MaxMem=    33554432 cpu:         6.0
 (Enter /home/proyectos/fulerenos/M3C-v2.0/M3C-deps_CCC/g09-AM64L-G09RevC.01/l701.exe)
 Compute integral first derivatives.
 ... and contract with generalized density number  0.
 Leave Link  701 at Wed Mar  6 14:58:53 2019, MaxMem=    33554432 cpu:         0.4
 (Enter /home/proyectos/fulerenos/M3C-v2.0/M3C-deps_CCC/g09-AM64L-G09RevC.01/l702.exe)
 L702 exits ... SP integral derivatives will be done elsewhere.
 Leave Link  702 at Wed Mar  6 14:58:53 2019, MaxMem=    33554432 cpu:         0.0
 (Enter /home/proyectos/fulerenos/M3C-v2.0/M3C-deps_CCC/g09-AM64L-G09RevC.01/l703.exe)
 Compute integral first derivatives, UseDBF=F ICtDFT=           0.
 Integral derivatives from FoFJK, PRISM(SPDF).
 Calling FoFJK, ICntrl=      2127 FMM=F ISym2X=0 I1Cent= 0 IOpClX= 0 NMat=1 NMatS=1 NMatT=0.
 FoFJK:  IHMeth= 1 ICntrl=    2127 DoSepK=F KAlg= 0 I1Cent=   0 FoldK=F
 IRaf=         0 NMat=   1 IRICut=       1 DoRegI=T DoRafI=F ISym2E= 0.
 FoFCou: FMM=F IPFlag=           0 FMFlag=      100000 FMFlg1=         800
         NFxFlg=           0 DoJE=F BraDBF=F KetDBF=F FulRan=T
         wScrn=  0.000000 ICntrl=    2127 IOpCl=  0 I1Cent=           0 NGrid=           0
         NMat0=    1 NMatS0=      1 NMatT0=    0 NMatD0=    1 NMtDS0=    0 NMtDT0=    0
 Symmetry not used in FoFCou.
 Leave Link  703 at Wed Mar  6 14:58:57 2019, MaxMem=    33554432 cpu:         8.2
 (Enter /home/proyectos/fulerenos/M3C-v2.0/M3C-deps_CCC/g09-AM64L-G09RevC.01/l716.exe)
 Dipole        =-5.49186947D+00-1.89370024D+00-2.66219842D+00
 -------------------------------------------------------------------
 Center     Atomic                   Forces (Hartrees/Bohr)
 Number     Number              X              Y              Z
 -------------------------------------------------------------------
      1        6          -0.000881210   -0.000622945   -0.000680479
      2        6           0.003040471    0.000430247    0.001028353
      3        1          -0.001843122   -0.000119753   -0.000509751
      4        1           0.000263510   -0.012842928    0.012997887
      5        1          -0.005436899    0.009194139    0.012647351
      6        8           0.004857250    0.003961240   -0.025483362
 -------------------------------------------------------------------
 Cartesian Forces:  Max     0.025483362 RMS     0.008539044
 Leave Link  716 at Wed Mar  6 14:58:57 2019, MaxMem=    33554432 cpu:         0.0
 (Enter /home/proyectos/fulerenos/M3C-v2.0/M3C-deps_CCC/g09-AM64L-G09RevC.01/l103.exe)

 GradGradGradGradGradGradGradGradGradGradGradGradGradGradGradGradGradGrad
 Berny optimization.
 Using GEDIIS/GDIIS optimizer.
 Bend failed for angle     3 -     2 -     6
 Tors failed for dihedral     3 -     2 -     6 -     4
 Tors failed for dihedral     3 -     2 -     6 -     5
 FormBX had a problem.
 Error termination via Lnk1e in /home/proyectos/fulerenos/M3C-v2.0/M3C-deps_CCC/g09-AM64L-G09RevC.01/l103.exe at Wed Mar  6 14:58:57 2019.
 Job cpu time:       0 days  0 hours 50 minutes 25.0 seconds.
 File lengths (MBytes):  RWF=     15 Int=      0 D2E=      0 Chk=      2 Scr=      1
